V -t * -v 1.0a5 -a 0
A -t * -n 1 -p 0 -o 0x7fffffff -c 30 -a 1
A -t * -h 1 -m 1073741823 -s 0
c -t * -i 1 -n Blue
c -t * -i 2 -n Red
n -t * -a 4 -s 4 -S UP -v circle -c black -i black
n -t * -a 0 -s 0 -S UP -v circle -c black -i black
n -t * -a 5 -s 5 -S UP -v circle -c Blue -i Blue
n -t * -a 1 -s 1 -S UP -v circle -c Red -i Red
n -t * -a 6 -s 6 -S UP -v circle -c black -i black
n -t * -a 2 -s 2 -S UP -v circle -c black -i black
n -t * -a 7 -s 7 -S UP -v circle -c black -i black
n -t * -a 3 -s 3 -S UP -v circle -c black -i black
l -t * -s 0 -d 2 -S UP -r 2000000 -D 0.01 -c black -o right
X -t * -n 8 -r 1Mb -D 40ms -o left
L -t * -s 8 -d 1 -o up
L -t * -s 8 -d 2 -o down
L -t * -s 8 -d 3 -o up
L -t * -s 8 -d 4 -o down
L -t * -s 8 -d 5 -o up
L -t * -s 8 -d 6 -o down
L -t * -s 8 -d 7 -o up
h -t 0.1 -s 1 -d 8 -p cbr -e 1000 -c 2 -i 0 -a 2 -x {1.0 5.0 0 ------- null}
+ -t 0.14 -s 1 -d 8 -p cbr -e 1000 -c 2 -i 0 -a 2 -x {1.0 5.0 0 ------- null}
- -t 0.14 -s 1 -d 8 -p cbr -e 1000 -c 2 -i 0 -a 2 -x {1.0 5.0 0 ------- null}
h -t 0.14 -s 1 -d 8 -p cbr -e 1000 -c 2 -i 0 -a 2 -x {1.0 5.0 -1 ------- null}
d -t 0.140004 -s 7 -d 8 -p cbr -e 1000 -c 2 -i 0 -a 2 -x {1.0 5.0 0 ------- null}
d -t 0.140004 -s 6 -d 8 -p cbr -e 1000 -c 2 -i 0 -a 2 -x {1.0 5.0 0 ------- null}
d -t 0.140004 -s 4 -d 8 -p cbr -e 1000 -c 2 -i 0 -a 2 -x {1.0 5.0 0 ------- null}
d -t 0.140004 -s 3 -d 8 -p cbr -e 1000 -c 2 -i 0 -a 2 -x {1.0 5.0 0 ------- null}
d -t 0.140004 -s 2 -d 8 -p cbr -e 1000 -c 2 -i 0 -a 2 -x {1.0 5.0 0 ------- null}
r -t 0.180004 -s 8 -d 5 -p cbr -e 1000 -c 2 -i 0 -a 2 -x {1.0 5.0 0 ------- null}
h -t 0.26 -s 1 -d 8 -p cbr -e 1000 -c 2 -i 1 -a 2 -x {1.0 5.0 1 ------- null}
+ -t 0.3 -s 1 -d 8 -p cbr -e 1000 -c 2 -i 1 -a 2 -x {1.0 5.0 1 ------- null}
- -t 0.3 -s 1 -d 8 -p cbr -e 1000 -c 2 -i 1 -a 2 -x {1.0 5.0 1 ------- null}
h -t 0.3 -s 1 -d 8 -p cbr -e 1000 -c 2 -i 1 -a 2 -x {1.0 5.0 -1 ------- null}
d -t 0.300004 -s 7 -d 8 -p cbr -e 1000 -c 2 -i 1 -a 2 -x {1.0 5.0 1 ------- null}
d -t 0.300004 -s 6 -d 8 -p cbr -e 1000 -c 2 -i 1 -a 2 -x {1.0 5.0 1 ------- null}
d -t 0.300004 -s 4 -d 8 -p cbr -e 1000 -c 2 -i 1 -a 2 -x {1.0 5.0 1 ------- null}
d -t 0.300004 -s 3 -d 8 -p cbr -e 1000 -c 2 -i 1 -a 2 -x {1.0 5.0 1 ------- null}
d -t 0.300004 -s 2 -d 8 -p cbr -e 1000 -c 2 -i 1 -a 2 -x {1.0 5.0 1 ------- null}
r -t 0.340004 -s 8 -d 5 -p cbr -e 1000 -c 2 -i 1 -a 2 -x {1.0 5.0 1 ------- null}
h -t 0.42 -s 1 -d 8 -p cbr -e 1000 -c 2 -i 2 -a 2 -x {1.0 5.0 2 ------- null}
+ -t 0.46 -s 1 -d 8 -p cbr -e 1000 -c 2 -i 2 -a 2 -x {1.0 5.0 2 ------- null}
- -t 0.46 -s 1 -d 8 -p cbr -e 1000 -c 2 -i 2 -a 2 -x {1.0 5.0 2 ------- null}
h -t 0.46 -s 1 -d 8 -p cbr -e 1000 -c 2 -i 2 -a 2 -x {1.0 5.0 -1 ------- null}
d -t 0.460004 -s 7 -d 8 -p cbr -e 1000 -c 2 -i 2 -a 2 -x {1.0 5.0 2 ------- null}
d -t 0.460004 -s 6 -d 8 -p cbr -e 1000 -c 2 -i 2 -a 2 -x {1.0 5.0 2 ------- null}
d -t 0.460004 -s 4 -d 8 -p cbr -e 1000 -c 2 -i 2 -a 2 -x {1.0 5.0 2 ------- null}
d -t 0.460004 -s 3 -d 8 -p cbr -e 1000 -c 2 -i 2 -a 2 -x {1.0 5.0 2 ------- null}
d -t 0.460004 -s 2 -d 8 -p cbr -e 1000 -c 2 -i 2 -a 2 -x {1.0 5.0 2 ------- null}
r -t 0.500004 -s 8 -d 5 -p cbr -e 1000 -c 2 -i 2 -a 2 -x {1.0 5.0 2 ------- null}
h -t 0.58 -s 1 -d 8 -p cbr -e 1000 -c 2 -i 3 -a 2 -x {1.0 5.0 3 ------- null}
+ -t 0.62 -s 1 -d 8 -p cbr -e 1000 -c 2 -i 3 -a 2 -x {1.0 5.0 3 ------- null}
- -t 0.62 -s 1 -d 8 -p cbr -e 1000 -c 2 -i 3 -a 2 -x {1.0 5.0 3 ------- null}
h -t 0.62 -s 1 -d 8 -p cbr -e 1000 -c 2 -i 3 -a 2 -x {1.0 5.0 -1 ------- null}
d -t 0.620004 -s 7 -d 8 -p cbr -e 1000 -c 2 -i 3 -a 2 -x {1.0 5.0 3 ------- null}
d -t 0.620004 -s 6 -d 8 -p cbr -e 1000 -c 2 -i 3 -a 2 -x {1.0 5.0 3 ------- null}
d -t 0.620004 -s 4 -d 8 -p cbr -e 1000 -c 2 -i 3 -a 2 -x {1.0 5.0 3 ------- null}
d -t 0.620004 -s 3 -d 8 -p cbr -e 1000 -c 2 -i 3 -a 2 -x {1.0 5.0 3 ------- null}
d -t 0.620004 -s 2 -d 8 -p cbr -e 1000 -c 2 -i 3 -a 2 -x {1.0 5.0 3 ------- null}
r -t 0.660004 -s 8 -d 5 -p cbr -e 1000 -c 2 -i 3 -a 2 -x {1.0 5.0 3 ------- null}
h -t 0.74 -s 1 -d 8 -p cbr -e 1000 -c 2 -i 4 -a 2 -x {1.0 5.0 4 ------- null}
+ -t 0.78 -s 1 -d 8 -p cbr -e 1000 -c 2 -i 4 -a 2 -x {1.0 5.0 4 ------- null}
- -t 0.78 -s 1 -d 8 -p cbr -e 1000 -c 2 -i 4 -a 2 -x {1.0 5.0 4 ------- null}
h -t 0.78 -s 1 -d 8 -p cbr -e 1000 -c 2 -i 4 -a 2 -x {1.0 5.0 -1 ------- null}
d -t 0.780004 -s 7 -d 8 -p cbr -e 1000 -c 2 -i 4 -a 2 -x {1.0 5.0 4 ------- null}
d -t 0.780004 -s 6 -d 8 -p cbr -e 1000 -c 2 -i 4 -a 2 -x {1.0 5.0 4 ------- null}
d -t 0.780004 -s 4 -d 8 -p cbr -e 1000 -c 2 -i 4 -a 2 -x {1.0 5.0 4 ------- null}
d -t 0.780004 -s 3 -d 8 -p cbr -e 1000 -c 2 -i 4 -a 2 -x {1.0 5.0 4 ------- null}
d -t 0.780004 -s 2 -d 8 -p cbr -e 1000 -c 2 -i 4 -a 2 -x {1.0 5.0 4 ------- null}
r -t 0.820004 -s 8 -d 5 -p cbr -e 1000 -c 2 -i 4 -a 2 -x {1.0 5.0 4 ------- null}
h -t 0.9 -s 1 -d 8 -p cbr -e 1000 -c 2 -i 5 -a 2 -x {1.0 5.0 5 ------- null}
+ -t 0.94 -s 1 -d 8 -p cbr -e 1000 -c 2 -i 5 -a 2 -x {1.0 5.0 5 ------- null}
- -t 0.94 -s 1 -d 8 -p cbr -e 1000 -c 2 -i 5 -a 2 -x {1.0 5.0 5 ------- null}
h -t 0.94 -s 1 -d 8 -p cbr -e 1000 -c 2 -i 5 -a 2 -x {1.0 5.0 -1 ------- null}
d -t 0.940004 -s 7 -d 8 -p cbr -e 1000 -c 2 -i 5 -a 2 -x {1.0 5.0 5 ------- null}
d -t 0.940004 -s 6 -d 8 -p cbr -e 1000 -c 2 -i 5 -a 2 -x {1.0 5.0 5 ------- null}
d -t 0.940004 -s 4 -d 8 -p cbr -e 1000 -c 2 -i 5 -a 2 -x {1.0 5.0 5 ------- null}
d -t 0.940004 -s 3 -d 8 -p cbr -e 1000 -c 2 -i 5 -a 2 -x {1.0 5.0 5 ------- null}
d -t 0.940004 -s 2 -d 8 -p cbr -e 1000 -c 2 -i 5 -a 2 -x {1.0 5.0 5 ------- null}
r -t 0.980004 -s 8 -d 5 -p cbr -e 1000 -c 2 -i 5 -a 2 -x {1.0 5.0 5 ------- null}
h -t 1.06 -s 1 -d 8 -p cbr -e 1000 -c 2 -i 6 -a 2 -x {1.0 5.0 6 ------- null}
+ -t 1.1 -s 1 -d 8 -p cbr -e 1000 -c 2 -i 6 -a 2 -x {1.0 5.0 6 ------- null}
- -t 1.1 -s 1 -d 8 -p cbr -e 1000 -c 2 -i 6 -a 2 -x {1.0 5.0 6 ------- null}
h -t 1.1 -s 1 -d 8 -p cbr -e 1000 -c 2 -i 6 -a 2 -x {1.0 5.0 -1 ------- null}
d -t 1.100004 -s 7 -d 8 -p cbr -e 1000 -c 2 -i 6 -a 2 -x {1.0 5.0 6 ------- null}
d -t 1.100004 -s 6 -d 8 -p cbr -e 1000 -c 2 -i 6 -a 2 -x {1.0 5.0 6 ------- null}
d -t 1.100004 -s 4 -d 8 -p cbr -e 1000 -c 2 -i 6 -a 2 -x {1.0 5.0 6 ------- null}
d -t 1.100004 -s 3 -d 8 -p cbr -e 1000 -c 2 -i 6 -a 2 -x {1.0 5.0 6 ------- null}
d -t 1.100004 -s 2 -d 8 -p cbr -e 1000 -c 2 -i 6 -a 2 -x {1.0 5.0 6 ------- null}
r -t 1.140004 -s 8 -d 5 -p cbr -e 1000 -c 2 -i 6 -a 2 -x {1.0 5.0 6 ------- null}
h -t 1.22 -s 1 -d 8 -p cbr -e 1000 -c 2 -i 7 -a 2 -x {1.0 5.0 7 ------- null}
+ -t 1.26 -s 1 -d 8 -p cbr -e 1000 -c 2 -i 7 -a 2 -x {1.0 5.0 7 ------- null}
- -t 1.26 -s 1 -d 8 -p cbr -e 1000 -c 2 -i 7 -a 2 -x {1.0 5.0 7 ------- null}
h -t 1.26 -s 1 -d 8 -p cbr -e 1000 -c 2 -i 7 -a 2 -x {1.0 5.0 -1 ------- null}
d -t 1.260004 -s 7 -d 8 -p cbr -e 1000 -c 2 -i 7 -a 2 -x {1.0 5.0 7 ------- null}
d -t 1.260004 -s 6 -d 8 -p cbr -e 1000 -c 2 -i 7 -a 2 -x {1.0 5.0 7 ------- null}
d -t 1.260004 -s 4 -d 8 -p cbr -e 1000 -c 2 -i 7 -a 2 -x {1.0 5.0 7 ------- null}
d -t 1.260004 -s 3 -d 8 -p cbr -e 1000 -c 2 -i 7 -a 2 -x {1.0 5.0 7 ------- null}
d -t 1.260004 -s 2 -d 8 -p cbr -e 1000 -c 2 -i 7 -a 2 -x {1.0 5.0 7 ------- null}
r -t 1.300004 -s 8 -d 5 -p cbr -e 1000 -c 2 -i 7 -a 2 -x {1.0 5.0 7 ------- null}
h -t 1.38 -s 1 -d 8 -p cbr -e 1000 -c 2 -i 8 -a 2 -x {1.0 5.0 8 ------- null}
+ -t 1.42 -s 1 -d 8 -p cbr -e 1000 -c 2 -i 8 -a 2 -x {1.0 5.0 8 ------- null}
- -t 1.42 -s 1 -d 8 -p cbr -e 1000 -c 2 -i 8 -a 2 -x {1.0 5.0 8 ------- null}
h -t 1.42 -s 1 -d 8 -p cbr -e 1000 -c 2 -i 8 -a 2 -x {1.0 5.0 -1 ------- null}
d -t 1.420004 -s 7 -d 8 -p cbr -e 1000 -c 2 -i 8 -a 2 -x {1.0 5.0 8 ------- null}
d -t 1.420004 -s 6 -d 8 -p cbr -e 1000 -c 2 -i 8 -a 2 -x {1.0 5.0 8 ------- null}
d -t 1.420004 -s 4 -d 8 -p cbr -e 1000 -c 2 -i 8 -a 2 -x {1.0 5.0 8 ------- null}
d -t 1.420004 -s 3 -d 8 -p cbr -e 1000 -c 2 -i 8 -a 2 -x {1.0 5.0 8 ------- null}
d -t 1.420004 -s 2 -d 8 -p cbr -e 1000 -c 2 -i 8 -a 2 -x {1.0 5.0 8 ------- null}
r -t 1.460004 -s 8 -d 5 -p cbr -e 1000 -c 2 -i 8 -a 2 -x {1.0 5.0 8 ------- null}
h -t 1.54 -s 1 -d 8 -p cbr -e 1000 -c 2 -i 9 -a 2 -x {1.0 5.0 9 ------- null}
+ -t 1.58 -s 1 -d 8 -p cbr -e 1000 -c 2 -i 9 -a 2 -x {1.0 5.0 9 ------- null}
- -t 1.58 -s 1 -d 8 -p cbr -e 1000 -c 2 -i 9 -a 2 -x {1.0 5.0 9 ------- null}
h -t 1.58 -s 1 -d 8 -p cbr -e 1000 -c 2 -i 9 -a 2 -x {1.0 5.0 -1 ------- null}
d -t 1.580004 -s 7 -d 8 -p cbr -e 1000 -c 2 -i 9 -a 2 -x {1.0 5.0 9 ------- null}
d -t 1.580004 -s 6 -d 8 -p cbr -e 1000 -c 2 -i 9 -a 2 -x {1.0 5.0 9 ------- null}
d -t 1.580004 -s 4 -d 8 -p cbr -e 1000 -c 2 -i 9 -a 2 -x {1.0 5.0 9 ------- null}
d -t 1.580004 -s 3 -d 8 -p cbr -e 1000 -c 2 -i 9 -a 2 -x {1.0 5.0 9 ------- null}
d -t 1.580004 -s 2 -d 8 -p cbr -e 1000 -c 2 -i 9 -a 2 -x {1.0 5.0 9 ------- null}
r -t 1.620004 -s 8 -d 5 -p cbr -e 1000 -c 2 -i 9 -a 2 -x {1.0 5.0 9 ------- null}
h -t 1.7 -s 1 -d 8 -p cbr -e 1000 -c 2 -i 10 -a 2 -x {1.0 5.0 10 ------- null}
+ -t 1.74 -s 1 -d 8 -p cbr -e 1000 -c 2 -i 10 -a 2 -x {1.0 5.0 10 ------- null}
- -t 1.74 -s 1 -d 8 -p cbr -e 1000 -c 2 -i 10 -a 2 -x {1.0 5.0 10 ------- null}
h -t 1.74 -s 1 -d 8 -p cbr -e 1000 -c 2 -i 10 -a 2 -x {1.0 5.0 -1 ------- null}
d -t 1.740004 -s 7 -d 8 -p cbr -e 1000 -c 2 -i 10 -a 2 -x {1.0 5.0 10 ------- null}
d -t 1.740004 -s 6 -d 8 -p cbr -e 1000 -c 2 -i 10 -a 2 -x {1.0 5.0 10 ------- null}
d -t 1.740004 -s 4 -d 8 -p cbr -e 1000 -c 2 -i 10 -a 2 -x {1.0 5.0 10 ------- null}
d -t 1.740004 -s 3 -d 8 -p cbr -e 1000 -c 2 -i 10 -a 2 -x {1.0 5.0 10 ------- null}
d -t 1.740004 -s 2 -d 8 -p cbr -e 1000 -c 2 -i 10 -a 2 -x {1.0 5.0 10 ------- null}
r -t 1.780004 -s 8 -d 5 -p cbr -e 1000 -c 2 -i 10 -a 2 -x {1.0 5.0 10 ------- null}
h -t 1.86 -s 1 -d 8 -p cbr -e 1000 -c 2 -i 11 -a 2 -x {1.0 5.0 11 ------- null}
+ -t 1.9 -s 1 -d 8 -p cbr -e 1000 -c 2 -i 11 -a 2 -x {1.0 5.0 11 ------- null}
- -t 1.9 -s 1 -d 8 -p cbr -e 1000 -c 2 -i 11 -a 2 -x {1.0 5.0 11 ------- null}
h -t 1.9 -s 1 -d 8 -p cbr -e 1000 -c 2 -i 11 -a 2 -x {1.0 5.0 -1 ------- null}
d -t 1.900004 -s 7 -d 8 -p cbr -e 1000 -c 2 -i 11 -a 2 -x {1.0 5.0 11 ------- null}
d -t 1.900004 -s 6 -d 8 -p cbr -e 1000 -c 2 -i 11 -a 2 -x {1.0 5.0 11 ------- null}
d -t 1.900004 -s 4 -d 8 -p cbr -e 1000 -c 2 -i 11 -a 2 -x {1.0 5.0 11 ------- null}
d -t 1.900004 -s 3 -d 8 -p cbr -e 1000 -c 2 -i 11 -a 2 -x {1.0 5.0 11 ------- null}
d -t 1.900004 -s 2 -d 8 -p cbr -e 1000 -c 2 -i 11 -a 2 -x {1.0 5.0 11 ------- null}
r -t 1.940004 -s 8 -d 5 -p cbr -e 1000 -c 2 -i 11 -a 2 -x {1.0 5.0 11 ------- null}
h -t 2.02 -s 1 -d 8 -p cbr -e 1000 -c 2 -i 12 -a 2 -x {1.0 5.0 12 ------- null}
+ -t 2.06 -s 1 -d 8 -p cbr -e 1000 -c 2 -i 12 -a 2 -x {1.0 5.0 12 ------- null}
- -t 2.06 -s 1 -d 8 -p cbr -e 1000 -c 2 -i 12 -a 2 -x {1.0 5.0 12 ------- null}
h -t 2.06 -s 1 -d 8 -p cbr -e 1000 -c 2 -i 12 -a 2 -x {1.0 5.0 -1 ------- null}
d -t 2.060004 -s 7 -d 8 -p cbr -e 1000 -c 2 -i 12 -a 2 -x {1.0 5.0 12 ------- null}
d -t 2.060004 -s 6 -d 8 -p cbr -e 1000 -c 2 -i 12 -a 2 -x {1.0 5.0 12 ------- null}
d -t 2.060004 -s 4 -d 8 -p cbr -e 1000 -c 2 -i 12 -a 2 -x {1.0 5.0 12 ------- null}
d -t 2.060004 -s 3 -d 8 -p cbr -e 1000 -c 2 -i 12 -a 2 -x {1.0 5.0 12 ------- null}
d -t 2.060004 -s 2 -d 8 -p cbr -e 1000 -c 2 -i 12 -a 2 -x {1.0 5.0 12 ------- null}
r -t 2.100004 -s 8 -d 5 -p cbr -e 1000 -c 2 -i 12 -a 2 -x {1.0 5.0 12 ------- null}
h -t 2.18 -s 1 -d 8 -p cbr -e 1000 -c 2 -i 13 -a 2 -x {1.0 5.0 13 ------- null}
+ -t 2.22 -s 1 -d 8 -p cbr -e 1000 -c 2 -i 13 -a 2 -x {1.0 5.0 13 ------- null}
- -t 2.22 -s 1 -d 8 -p cbr -e 1000 -c 2 -i 13 -a 2 -x {1.0 5.0 13 ------- null}
h -t 2.22 -s 1 -d 8 -p cbr -e 1000 -c 2 -i 13 -a 2 -x {1.0 5.0 -1 ------- null}
d -t 2.220004 -s 7 -d 8 -p cbr -e 1000 -c 2 -i 13 -a 2 -x {1.0 5.0 13 ------- null}
d -t 2.220004 -s 6 -d 8 -p cbr -e 1000 -c 2 -i 13 -a 2 -x {1.0 5.0 13 ------- null}
d -t 2.220004 -s 4 -d 8 -p cbr -e 1000 -c 2 -i 13 -a 2 -x {1.0 5.0 13 ------- null}
d -t 2.220004 -s 3 -d 8 -p cbr -e 1000 -c 2 -i 13 -a 2 -x {1.0 5.0 13 ------- null}
d -t 2.220004 -s 2 -d 8 -p cbr -e 1000 -c 2 -i 13 -a 2 -x {1.0 5.0 13 ------- null}
r -t 2.260004 -s 8 -d 5 -p cbr -e 1000 -c 2 -i 13 -a 2 -x {1.0 5.0 13 ------- null}
h -t 2.34 -s 1 -d 8 -p cbr -e 1000 -c 2 -i 14 -a 2 -x {1.0 5.0 14 ------- null}
+ -t 2.38 -s 1 -d 8 -p cbr -e 1000 -c 2 -i 14 -a 2 -x {1.0 5.0 14 ------- null}
- -t 2.38 -s 1 -d 8 -p cbr -e 1000 -c 2 -i 14 -a 2 -x {1.0 5.0 14 ------- null}
h -t 2.38 -s 1 -d 8 -p cbr -e 1000 -c 2 -i 14 -a 2 -x {1.0 5.0 -1 ------- null}
d -t 2.380004 -s 7 -d 8 -p cbr -e 1000 -c 2 -i 14 -a 2 -x {1.0 5.0 14 ------- null}
d -t 2.380004 -s 6 -d 8 -p cbr -e 1000 -c 2 -i 14 -a 2 -x {1.0 5.0 14 ------- null}
d -t 2.380004 -s 4 -d 8 -p cbr -e 1000 -c 2 -i 14 -a 2 -x {1.0 5.0 14 ------- null}
d -t 2.380004 -s 3 -d 8 -p cbr -e 1000 -c 2 -i 14 -a 2 -x {1.0 5.0 14 ------- null}
d -t 2.380004 -s 2 -d 8 -p cbr -e 1000 -c 2 -i 14 -a 2 -x {1.0 5.0 14 ------- null}
r -t 2.420004 -s 8 -d 5 -p cbr -e 1000 -c 2 -i 14 -a 2 -x {1.0 5.0 14 ------- null}
h -t 2.5 -s 1 -d 8 -p cbr -e 1000 -c 2 -i 15 -a 2 -x {1.0 5.0 15 ------- null}
+ -t 2.54 -s 1 -d 8 -p cbr -e 1000 -c 2 -i 15 -a 2 -x {1.0 5.0 15 ------- null}
- -t 2.54 -s 1 -d 8 -p cbr -e 1000 -c 2 -i 15 -a 2 -x {1.0 5.0 15 ------- null}
h -t 2.54 -s 1 -d 8 -p cbr -e 1000 -c 2 -i 15 -a 2 -x {1.0 5.0 -1 ------- null}
d -t 2.540004 -s 7 -d 8 -p cbr -e 1000 -c 2 -i 15 -a 2 -x {1.0 5.0 15 ------- null}
d -t 2.540004 -s 6 -d 8 -p cbr -e 1000 -c 2 -i 15 -a 2 -x {1.0 5.0 15 ------- null}
d -t 2.540004 -s 4 -d 8 -p cbr -e 1000 -c 2 -i 15 -a 2 -x {1.0 5.0 15 ------- null}
d -t 2.540004 -s 3 -d 8 -p cbr -e 1000 -c 2 -i 15 -a 2 -x {1.0 5.0 15 ------- null}
d -t 2.540004 -s 2 -d 8 -p cbr -e 1000 -c 2 -i 15 -a 2 -x {1.0 5.0 15 ------- null}
r -t 2.580004 -s 8 -d 5 -p cbr -e 1000 -c 2 -i 15 -a 2 -x {1.0 5.0 15 ------- null}
h -t 2.66 -s 1 -d 8 -p cbr -e 1000 -c 2 -i 16 -a 2 -x {1.0 5.0 16 ------- null}
+ -t 2.7 -s 1 -d 8 -p cbr -e 1000 -c 2 -i 16 -a 2 -x {1.0 5.0 16 ------- null}
- -t 2.7 -s 1 -d 8 -p cbr -e 1000 -c 2 -i 16 -a 2 -x {1.0 5.0 16 ------- null}
h -t 2.7 -s 1 -d 8 -p cbr -e 1000 -c 2 -i 16 -a 2 -x {1.0 5.0 -1 ------- null}
d -t 2.700004 -s 7 -d 8 -p cbr -e 1000 -c 2 -i 16 -a 2 -x {1.0 5.0 16 ------- null}
d -t 2.700004 -s 6 -d 8 -p cbr -e 1000 -c 2 -i 16 -a 2 -x {1.0 5.0 16 ------- null}
d -t 2.700004 -s 4 -d 8 -p cbr -e 1000 -c 2 -i 16 -a 2 -x {1.0 5.0 16 ------- null}
d -t 2.700004 -s 3 -d 8 -p cbr -e 1000 -c 2 -i 16 -a 2 -x {1.0 5.0 16 ------- null}
d -t 2.700004 -s 2 -d 8 -p cbr -e 1000 -c 2 -i 16 -a 2 -x {1.0 5.0 16 ------- null}
r -t 2.740004 -s 8 -d 5 -p cbr -e 1000 -c 2 -i 16 -a 2 -x {1.0 5.0 16 ------- null}
h -t 2.82 -s 1 -d 8 -p cbr -e 1000 -c 2 -i 17 -a 2 -x {1.0 5.0 17 ------- null}
+ -t 2.86 -s 1 -d 8 -p cbr -e 1000 -c 2 -i 17 -a 2 -x {1.0 5.0 17 ------- null}
- -t 2.86 -s 1 -d 8 -p cbr -e 1000 -c 2 -i 17 -a 2 -x {1.0 5.0 17 ------- null}
h -t 2.86 -s 1 -d 8 -p cbr -e 1000 -c 2 -i 17 -a 2 -x {1.0 5.0 -1 ------- null}
d -t 2.860004 -s 7 -d 8 -p cbr -e 1000 -c 2 -i 17 -a 2 -x {1.0 5.0 17 ------- null}
d -t 2.860004 -s 6 -d 8 -p cbr -e 1000 -c 2 -i 17 -a 2 -x {1.0 5.0 17 ------- null}
d -t 2.860004 -s 4 -d 8 -p cbr -e 1000 -c 2 -i 17 -a 2 -x {1.0 5.0 17 ------- null}
d -t 2.860004 -s 3 -d 8 -p cbr -e 1000 -c 2 -i 17 -a 2 -x {1.0 5.0 17 ------- null}
d -t 2.860004 -s 2 -d 8 -p cbr -e 1000 -c 2 -i 17 -a 2 -x {1.0 5.0 17 ------- null}
r -t 2.900004 -s 8 -d 5 -p cbr -e 1000 -c 2 -i 17 -a 2 -x {1.0 5.0 17 ------- null}
h -t 2.98 -s 1 -d 8 -p cbr -e 1000 -c 2 -i 18 -a 2 -x {1.0 5.0 18 ------- null}
+ -t 3.02 -s 1 -d 8 -p cbr -e 1000 -c 2 -i 18 -a 2 -x {1.0 5.0 18 ------- null}
- -t 3.02 -s 1 -d 8 -p cbr -e 1000 -c 2 -i 18 -a 2 -x {1.0 5.0 18 ------- null}
h -t 3.02 -s 1 -d 8 -p cbr -e 1000 -c 2 -i 18 -a 2 -x {1.0 5.0 -1 ------- null}
d -t 3.020004 -s 7 -d 8 -p cbr -e 1000 -c 2 -i 18 -a 2 -x {1.0 5.0 18 ------- null}
d -t 3.020004 -s 6 -d 8 -p cbr -e 1000 -c 2 -i 18 -a 2 -x {1.0 5.0 18 ------- null}
d -t 3.020004 -s 4 -d 8 -p cbr -e 1000 -c 2 -i 18 -a 2 -x {1.0 5.0 18 ------- null}
d -t 3.020004 -s 3 -d 8 -p cbr -e 1000 -c 2 -i 18 -a 2 -x {1.0 5.0 18 ------- null}
d -t 3.020004 -s 2 -d 8 -p cbr -e 1000 -c 2 -i 18 -a 2 -x {1.0 5.0 18 ------- null}
r -t 3.060004 -s 8 -d 5 -p cbr -e 1000 -c 2 -i 18 -a 2 -x {1.0 5.0 18 ------- null}
h -t 3.14 -s 1 -d 8 -p cbr -e 1000 -c 2 -i 19 -a 2 -x {1.0 5.0 19 ------- null}
+ -t 3.18 -s 1 -d 8 -p cbr -e 1000 -c 2 -i 19 -a 2 -x {1.0 5.0 19 ------- null}
- -t 3.18 -s 1 -d 8 -p cbr -e 1000 -c 2 -i 19 -a 2 -x {1.0 5.0 19 ------- null}
h -t 3.18 -s 1 -d 8 -p cbr -e 1000 -c 2 -i 19 -a 2 -x {1.0 5.0 -1 ------- null}
d -t 3.180004 -s 7 -d 8 -p cbr -e 1000 -c 2 -i 19 -a 2 -x {1.0 5.0 19 ------- null}
d -t 3.180004 -s 6 -d 8 -p cbr -e 1000 -c 2 -i 19 -a 2 -x {1.0 5.0 19 ------- null}
d -t 3.180004 -s 4 -d 8 -p cbr -e 1000 -c 2 -i 19 -a 2 -x {1.0 5.0 19 ------- null}
d -t 3.180004 -s 3 -d 8 -p cbr -e 1000 -c 2 -i 19 -a 2 -x {1.0 5.0 19 ------- null}
d -t 3.180004 -s 2 -d 8 -p cbr -e 1000 -c 2 -i 19 -a 2 -x {1.0 5.0 19 ------- null}
r -t 3.220004 -s 8 -d 5 -p cbr -e 1000 -c 2 -i 19 -a 2 -x {1.0 5.0 19 ------- null}
h -t 3.3 -s 1 -d 8 -p cbr -e 1000 -c 2 -i 20 -a 2 -x {1.0 5.0 20 ------- null}
+ -t 3.34 -s 1 -d 8 -p cbr -e 1000 -c 2 -i 20 -a 2 -x {1.0 5.0 20 ------- null}
- -t 3.34 -s 1 -d 8 -p cbr -e 1000 -c 2 -i 20 -a 2 -x {1.0 5.0 20 ------- null}
h -t 3.34 -s 1 -d 8 -p cbr -e 1000 -c 2 -i 20 -a 2 -x {1.0 5.0 -1 ------- null}
d -t 3.340004 -s 7 -d 8 -p cbr -e 1000 -c 2 -i 20 -a 2 -x {1.0 5.0 20 ------- null}
d -t 3.340004 -s 6 -d 8 -p cbr -e 1000 -c 2 -i 20 -a 2 -x {1.0 5.0 20 ------- null}
d -t 3.340004 -s 4 -d 8 -p cbr -e 1000 -c 2 -i 20 -a 2 -x {1.0 5.0 20 ------- null}
d -t 3.340004 -s 3 -d 8 -p cbr -e 1000 -c 2 -i 20 -a 2 -x {1.0 5.0 20 ------- null}
d -t 3.340004 -s 2 -d 8 -p cbr -e 1000 -c 2 -i 20 -a 2 -x {1.0 5.0 20 ------- null}
r -t 3.380004 -s 8 -d 5 -p cbr -e 1000 -c 2 -i 20 -a 2 -x {1.0 5.0 20 ------- null}
h -t 3.46 -s 1 -d 8 -p cbr -e 1000 -c 2 -i 21 -a 2 -x {1.0 5.0 21 ------- null}
+ -t 3.5 -s 1 -d 8 -p cbr -e 1000 -c 2 -i 21 -a 2 -x {1.0 5.0 21 ------- null}
- -t 3.5 -s 1 -d 8 -p cbr -e 1000 -c 2 -i 21 -a 2 -x {1.0 5.0 21 ------- null}
h -t 3.5 -s 1 -d 8 -p cbr -e 1000 -c 2 -i 21 -a 2 -x {1.0 5.0 -1 ------- null}
d -t 3.500004 -s 7 -d 8 -p cbr -e 1000 -c 2 -i 21 -a 2 -x {1.0 5.0 21 ------- null}
d -t 3.500004 -s 6 -d 8 -p cbr -e 1000 -c 2 -i 21 -a 2 -x {1.0 5.0 21 ------- null}
d -t 3.500004 -s 4 -d 8 -p cbr -e 1000 -c 2 -i 21 -a 2 -x {1.0 5.0 21 ------- null}
d -t 3.500004 -s 3 -d 8 -p cbr -e 1000 -c 2 -i 21 -a 2 -x {1.0 5.0 21 ------- null}
d -t 3.500004 -s 2 -d 8 -p cbr -e 1000 -c 2 -i 21 -a 2 -x {1.0 5.0 21 ------- null}
r -t 3.540004 -s 8 -d 5 -p cbr -e 1000 -c 2 -i 21 -a 2 -x {1.0 5.0 21 ------- null}
h -t 3.62 -s 1 -d 8 -p cbr -e 1000 -c 2 -i 22 -a 2 -x {1.0 5.0 22 ------- null}
+ -t 3.66 -s 1 -d 8 -p cbr -e 1000 -c 2 -i 22 -a 2 -x {1.0 5.0 22 ------- null}
- -t 3.66 -s 1 -d 8 -p cbr -e 1000 -c 2 -i 22 -a 2 -x {1.0 5.0 22 ------- null}
h -t 3.66 -s 1 -d 8 -p cbr -e 1000 -c 2 -i 22 -a 2 -x {1.0 5.0 -1 ------- null}
d -t 3.660004 -s 7 -d 8 -p cbr -e 1000 -c 2 -i 22 -a 2 -x {1.0 5.0 22 ------- null}
d -t 3.660004 -s 6 -d 8 -p cbr -e 1000 -c 2 -i 22 -a 2 -x {1.0 5.0 22 ------- null}
d -t 3.660004 -s 4 -d 8 -p cbr -e 1000 -c 2 -i 22 -a 2 -x {1.0 5.0 22 ------- null}
d -t 3.660004 -s 3 -d 8 -p cbr -e 1000 -c 2 -i 22 -a 2 -x {1.0 5.0 22 ------- null}
d -t 3.660004 -s 2 -d 8 -p cbr -e 1000 -c 2 -i 22 -a 2 -x {1.0 5.0 22 ------- null}
r -t 3.700004 -s 8 -d 5 -p cbr -e 1000 -c 2 -i 22 -a 2 -x {1.0 5.0 22 ------- null}
h -t 3.78 -s 1 -d 8 -p cbr -e 1000 -c 2 -i 23 -a 2 -x {1.0 5.0 23 ------- null}
+ -t 3.82 -s 1 -d 8 -p cbr -e 1000 -c 2 -i 23 -a 2 -x {1.0 5.0 23 ------- null}
- -t 3.82 -s 1 -d 8 -p cbr -e 1000 -c 2 -i 23 -a 2 -x {1.0 5.0 23 ------- null}
h -t 3.82 -s 1 -d 8 -p cbr -e 1000 -c 2 -i 23 -a 2 -x {1.0 5.0 -1 ------- null}
d -t 3.820004 -s 7 -d 8 -p cbr -e 1000 -c 2 -i 23 -a 2 -x {1.0 5.0 23 ------- null}
d -t 3.820004 -s 6 -d 8 -p cbr -e 1000 -c 2 -i 23 -a 2 -x {1.0 5.0 23 ------- null}
d -t 3.820004 -s 4 -d 8 -p cbr -e 1000 -c 2 -i 23 -a 2 -x {1.0 5.0 23 ------- null}
d -t 3.820004 -s 3 -d 8 -p cbr -e 1000 -c 2 -i 23 -a 2 -x {1.0 5.0 23 ------- null}
d -t 3.820004 -s 2 -d 8 -p cbr -e 1000 -c 2 -i 23 -a 2 -x {1.0 5.0 23 ------- null}
r -t 3.860004 -s 8 -d 5 -p cbr -e 1000 -c 2 -i 23 -a 2 -x {1.0 5.0 23 ------- null}
h -t 3.94 -s 1 -d 8 -p cbr -e 1000 -c 2 -i 24 -a 2 -x {1.0 5.0 24 ------- null}
+ -t 3.98 -s 1 -d 8 -p cbr -e 1000 -c 2 -i 24 -a 2 -x {1.0 5.0 24 ------- null}
- -t 3.98 -s 1 -d 8 -p cbr -e 1000 -c 2 -i 24 -a 2 -x {1.0 5.0 24 ------- null}
h -t 3.98 -s 1 -d 8 -p cbr -e 1000 -c 2 -i 24 -a 2 -x {1.0 5.0 -1 ------- null}
d -t 3.980004 -s 7 -d 8 -p cbr -e 1000 -c 2 -i 24 -a 2 -x {1.0 5.0 24 ------- null}
d -t 3.980004 -s 6 -d 8 -p cbr -e 1000 -c 2 -i 24 -a 2 -x {1.0 5.0 24 ------- null}
d -t 3.980004 -s 4 -d 8 -p cbr -e 1000 -c 2 -i 24 -a 2 -x {1.0 5.0 24 ------- null}
d -t 3.980004 -s 3 -d 8 -p cbr -e 1000 -c 2 -i 24 -a 2 -x {1.0 5.0 24 ------- null}
d -t 3.980004 -s 2 -d 8 -p cbr -e 1000 -c 2 -i 24 -a 2 -x {1.0 5.0 24 ------- null}
r -t 4.020004 -s 8 -d 5 -p cbr -e 1000 -c 2 -i 24 -a 2 -x {1.0 5.0 24 ------- null}
h -t 4.1 -s 1 -d 8 -p cbr -e 1000 -c 2 -i 25 -a 2 -x {1.0 5.0 25 ------- null}
+ -t 4.14 -s 1 -d 8 -p cbr -e 1000 -c 2 -i 25 -a 2 -x {1.0 5.0 25 ------- null}
- -t 4.14 -s 1 -d 8 -p cbr -e 1000 -c 2 -i 25 -a 2 -x {1.0 5.0 25 ------- null}
h -t 4.14 -s 1 -d 8 -p cbr -e 1000 -c 2 -i 25 -a 2 -x {1.0 5.0 -1 ------- null}
d -t 4.140004 -s 7 -d 8 -p cbr -e 1000 -c 2 -i 25 -a 2 -x {1.0 5.0 25 ------- null}
d -t 4.140004 -s 6 -d 8 -p cbr -e 1000 -c 2 -i 25 -a 2 -x {1.0 5.0 25 ------- null}
d -t 4.140004 -s 4 -d 8 -p cbr -e 1000 -c 2 -i 25 -a 2 -x {1.0 5.0 25 ------- null}
d -t 4.140004 -s 3 -d 8 -p cbr -e 1000 -c 2 -i 25 -a 2 -x {1.0 5.0 25 ------- null}
d -t 4.140004 -s 2 -d 8 -p cbr -e 1000 -c 2 -i 25 -a 2 -x {1.0 5.0 25 ------- null}
r -t 4.180004 -s 8 -d 5 -p cbr -e 1000 -c 2 -i 25 -a 2 -x {1.0 5.0 25 ------- null}
h -t 4.26 -s 1 -d 8 -p cbr -e 1000 -c 2 -i 26 -a 2 -x {1.0 5.0 26 ------- null}
+ -t 4.3 -s 1 -d 8 -p cbr -e 1000 -c 2 -i 26 -a 2 -x {1.0 5.0 26 ------- null}
- -t 4.3 -s 1 -d 8 -p cbr -e 1000 -c 2 -i 26 -a 2 -x {1.0 5.0 26 ------- null}
h -t 4.3 -s 1 -d 8 -p cbr -e 1000 -c 2 -i 26 -a 2 -x {1.0 5.0 -1 ------- null}
d -t 4.300004 -s 7 -d 8 -p cbr -e 1000 -c 2 -i 26 -a 2 -x {1.0 5.0 26 ------- null}
d -t 4.300004 -s 6 -d 8 -p cbr -e 1000 -c 2 -i 26 -a 2 -x {1.0 5.0 26 ------- null}
d -t 4.300004 -s 4 -d 8 -p cbr -e 1000 -c 2 -i 26 -a 2 -x {1.0 5.0 26 ------- null}
d -t 4.300004 -s 3 -d 8 -p cbr -e 1000 -c 2 -i 26 -a 2 -x {1.0 5.0 26 ------- null}
d -t 4.300004 -s 2 -d 8 -p cbr -e 1000 -c 2 -i 26 -a 2 -x {1.0 5.0 26 ------- null}
r -t 4.340004 -s 8 -d 5 -p cbr -e 1000 -c 2 -i 26 -a 2 -x {1.0 5.0 26 ------- null}
h -t 4.42 -s 1 -d 8 -p cbr -e 1000 -c 2 -i 27 -a 2 -x {1.0 5.0 27 ------- null}
+ -t 4.46 -s 1 -d 8 -p cbr -e 1000 -c 2 -i 27 -a 2 -x {1.0 5.0 27 ------- null}
- -t 4.46 -s 1 -d 8 -p cbr -e 1000 -c 2 -i 27 -a 2 -x {1.0 5.0 27 ------- null}
h -t 4.46 -s 1 -d 8 -p cbr -e 1000 -c 2 -i 27 -a 2 -x {1.0 5.0 -1 ------- null}
d -t 4.460004 -s 7 -d 8 -p cbr -e 1000 -c 2 -i 27 -a 2 -x {1.0 5.0 27 ------- null}
d -t 4.460004 -s 6 -d 8 -p cbr -e 1000 -c 2 -i 27 -a 2 -x {1.0 5.0 27 ------- null}
d -t 4.460004 -s 4 -d 8 -p cbr -e 1000 -c 2 -i 27 -a 2 -x {1.0 5.0 27 ------- null}
d -t 4.460004 -s 3 -d 8 -p cbr -e 1000 -c 2 -i 27 -a 2 -x {1.0 5.0 27 ------- null}
d -t 4.460004 -s 2 -d 8 -p cbr -e 1000 -c 2 -i 27 -a 2 -x {1.0 5.0 27 ------- null}
r -t 4.500004 -s 8 -d 5 -p cbr -e 1000 -c 2 -i 27 -a 2 -x {1.0 5.0 27 ------- null}
h -t 4.58 -s 1 -d 8 -p cbr -e 1000 -c 2 -i 28 -a 2 -x {1.0 5.0 28 ------- null}
+ -t 4.62 -s 1 -d 8 -p cbr -e 1000 -c 2 -i 28 -a 2 -x {1.0 5.0 28 ------- null}
- -t 4.62 -s 1 -d 8 -p cbr -e 1000 -c 2 -i 28 -a 2 -x {1.0 5.0 28 ------- null}
h -t 4.62 -s 1 -d 8 -p cbr -e 1000 -c 2 -i 28 -a 2 -x {1.0 5.0 -1 ------- null}
d -t 4.620004 -s 7 -d 8 -p cbr -e 1000 -c 2 -i 28 -a 2 -x {1.0 5.0 28 ------- null}
d -t 4.620004 -s 6 -d 8 -p cbr -e 1000 -c 2 -i 28 -a 2 -x {1.0 5.0 28 ------- null}
d -t 4.620004 -s 4 -d 8 -p cbr -e 1000 -c 2 -i 28 -a 2 -x {1.0 5.0 28 ------- null}
d -t 4.620004 -s 3 -d 8 -p cbr -e 1000 -c 2 -i 28 -a 2 -x {1.0 5.0 28 ------- null}
d -t 4.620004 -s 2 -d 8 -p cbr -e 1000 -c 2 -i 28 -a 2 -x {1.0 5.0 28 ------- null}
r -t 4.660004 -s 8 -d 5 -p cbr -e 1000 -c 2 -i 28 -a 2 -x {1.0 5.0 28 ------- null}
h -t 4.74 -s 1 -d 8 -p cbr -e 1000 -c 2 -i 29 -a 2 -x {1.0 5.0 29 ------- null}
+ -t 4.78 -s 1 -d 8 -p cbr -e 1000 -c 2 -i 29 -a 2 -x {1.0 5.0 29 ------- null}
- -t 4.78 -s 1 -d 8 -p cbr -e 1000 -c 2 -i 29 -a 2 -x {1.0 5.0 29 ------- null}
h -t 4.78 -s 1 -d 8 -p cbr -e 1000 -c 2 -i 29 -a 2 -x {1.0 5.0 -1 ------- null}
d -t 4.780004 -s 7 -d 8 -p cbr -e 1000 -c 2 -i 29 -a 2 -x {1.0 5.0 29 ------- null}
d -t 4.780004 -s 6 -d 8 -p cbr -e 1000 -c 2 -i 29 -a 2 -x {1.0 5.0 29 ------- null}
d -t 4.780004 -s 4 -d 8 -p cbr -e 1000 -c 2 -i 29 -a 2 -x {1.0 5.0 29 ------- null}
d -t 4.780004 -s 3 -d 8 -p cbr -e 1000 -c 2 -i 29 -a 2 -x {1.0 5.0 29 ------- null}
d -t 4.780004 -s 2 -d 8 -p cbr -e 1000 -c 2 -i 29 -a 2 -x {1.0 5.0 29 ------- null}
r -t 4.820004 -s 8 -d 5 -p cbr -e 1000 -c 2 -i 29 -a 2 -x {1.0 5.0 29 ------- null}
h -t 4.9 -s 1 -d 8 -p cbr -e 1000 -c 2 -i 30 -a 2 -x {1.0 5.0 30 ------- null}
+ -t 4.94 -s 1 -d 8 -p cbr -e 1000 -c 2 -i 30 -a 2 -x {1.0 5.0 30 ------- null}
- -t 4.94 -s 1 -d 8 -p cbr -e 1000 -c 2 -i 30 -a 2 -x {1.0 5.0 30 ------- null}
h -t 4.94 -s 1 -d 8 -p cbr -e 1000 -c 2 -i 30 -a 2 -x {1.0 5.0 -1 ------- null}
d -t 4.940004 -s 7 -d 8 -p cbr -e 1000 -c 2 -i 30 -a 2 -x {1.0 5.0 30 ------- null}
d -t 4.940004 -s 6 -d 8 -p cbr -e 1000 -c 2 -i 30 -a 2 -x {1.0 5.0 30 ------- null}
d -t 4.940004 -s 4 -d 8 -p cbr -e 1000 -c 2 -i 30 -a 2 -x {1.0 5.0 30 ------- null}
d -t 4.940004 -s 3 -d 8 -p cbr -e 1000 -c 2 -i 30 -a 2 -x {1.0 5.0 30 ------- null}
d -t 4.940004 -s 2 -d 8 -p cbr -e 1000 -c 2 -i 30 -a 2 -x {1.0 5.0 30 ------- null}
r -t 4.980004 -s 8 -d 5 -p cbr -e 1000 -c 2 -i 30 -a 2 -x {1.0 5.0 30 ------- null}
h -t 5.06 -s 1 -d 8 -p cbr -e 1000 -c 2 -i 31 -a 2 -x {1.0 5.0 31 ------- null}
+ -t 5.1 -s 1 -d 8 -p cbr -e 1000 -c 2 -i 31 -a 2 -x {1.0 5.0 31 ------- null}
- -t 5.1 -s 1 -d 8 -p cbr -e 1000 -c 2 -i 31 -a 2 -x {1.0 5.0 31 ------- null}
h -t 5.1 -s 1 -d 8 -p cbr -e 1000 -c 2 -i 31 -a 2 -x {1.0 5.0 -1 ------- null}
d -t 5.100004 -s 7 -d 8 -p cbr -e 1000 -c 2 -i 31 -a 2 -x {1.0 5.0 31 ------- null}
d -t 5.100004 -s 6 -d 8 -p cbr -e 1000 -c 2 -i 31 -a 2 -x {1.0 5.0 31 ------- null}
d -t 5.100004 -s 4 -d 8 -p cbr -e 1000 -c 2 -i 31 -a 2 -x {1.0 5.0 31 ------- null}
d -t 5.100004 -s 3 -d 8 -p cbr -e 1000 -c 2 -i 31 -a 2 -x {1.0 5.0 31 ------- null}
d -t 5.100004 -s 2 -d 8 -p cbr -e 1000 -c 2 -i 31 -a 2 -x {1.0 5.0 31 ------- null}
r -t 5.140004 -s 8 -d 5 -p cbr -e 1000 -c 2 -i 31 -a 2 -x {1.0 5.0 31 ------- null}
h -t 5.22 -s 1 -d 8 -p cbr -e 1000 -c 2 -i 32 -a 2 -x {1.0 5.0 32 ------- null}
+ -t 5.26 -s 1 -d 8 -p cbr -e 1000 -c 2 -i 32 -a 2 -x {1.0 5.0 32 ------- null}
- -t 5.26 -s 1 -d 8 -p cbr -e 1000 -c 2 -i 32 -a 2 -x {1.0 5.0 32 ------- null}
h -t 5.26 -s 1 -d 8 -p cbr -e 1000 -c 2 -i 32 -a 2 -x {1.0 5.0 -1 ------- null}
d -t 5.260004 -s 7 -d 8 -p cbr -e 1000 -c 2 -i 32 -a 2 -x {1.0 5.0 32 ------- null}
d -t 5.260004 -s 6 -d 8 -p cbr -e 1000 -c 2 -i 32 -a 2 -x {1.0 5.0 32 ------- null}
d -t 5.260004 -s 4 -d 8 -p cbr -e 1000 -c 2 -i 32 -a 2 -x {1.0 5.0 32 ------- null}
d -t 5.260004 -s 3 -d 8 -p cbr -e 1000 -c 2 -i 32 -a 2 -x {1.0 5.0 32 ------- null}
d -t 5.260004 -s 2 -d 8 -p cbr -e 1000 -c 2 -i 32 -a 2 -x {1.0 5.0 32 ------- null}
r -t 5.300004 -s 8 -d 5 -p cbr -e 1000 -c 2 -i 32 -a 2 -x {1.0 5.0 32 ------- null}
h -t 5.38 -s 1 -d 8 -p cbr -e 1000 -c 2 -i 33 -a 2 -x {1.0 5.0 33 ------- null}
+ -t 5.42 -s 1 -d 8 -p cbr -e 1000 -c 2 -i 33 -a 2 -x {1.0 5.0 33 ------- null}
- -t 5.42 -s 1 -d 8 -p cbr -e 1000 -c 2 -i 33 -a 2 -x {1.0 5.0 33 ------- null}
h -t 5.42 -s 1 -d 8 -p cbr -e 1000 -c 2 -i 33 -a 2 -x {1.0 5.0 -1 ------- null}
d -t 5.420004 -s 7 -d 8 -p cbr -e 1000 -c 2 -i 33 -a 2 -x {1.0 5.0 33 ------- null}
d -t 5.420004 -s 6 -d 8 -p cbr -e 1000 -c 2 -i 33 -a 2 -x {1.0 5.0 33 ------- null}
d -t 5.420004 -s 4 -d 8 -p cbr -e 1000 -c 2 -i 33 -a 2 -x {1.0 5.0 33 ------- null}
d -t 5.420004 -s 3 -d 8 -p cbr -e 1000 -c 2 -i 33 -a 2 -x {1.0 5.0 33 ------- null}
d -t 5.420004 -s 2 -d 8 -p cbr -e 1000 -c 2 -i 33 -a 2 -x {1.0 5.0 33 ------- null}
r -t 5.460004 -s 8 -d 5 -p cbr -e 1000 -c 2 -i 33 -a 2 -x {1.0 5.0 33 ------- null}
h -t 5.54 -s 1 -d 8 -p cbr -e 1000 -c 2 -i 34 -a 2 -x {1.0 5.0 34 ------- null}
+ -t 5.58 -s 1 -d 8 -p cbr -e 1000 -c 2 -i 34 -a 2 -x {1.0 5.0 34 ------- null}
- -t 5.58 -s 1 -d 8 -p cbr -e 1000 -c 2 -i 34 -a 2 -x {1.0 5.0 34 ------- null}
h -t 5.58 -s 1 -d 8 -p cbr -e 1000 -c 2 -i 34 -a 2 -x {1.0 5.0 -1 ------- null}
d -t 5.580004 -s 7 -d 8 -p cbr -e 1000 -c 2 -i 34 -a 2 -x {1.0 5.0 34 ------- null}
d -t 5.580004 -s 6 -d 8 -p cbr -e 1000 -c 2 -i 34 -a 2 -x {1.0 5.0 34 ------- null}
d -t 5.580004 -s 4 -d 8 -p cbr -e 1000 -c 2 -i 34 -a 2 -x {1.0 5.0 34 ------- null}
d -t 5.580004 -s 3 -d 8 -p cbr -e 1000 -c 2 -i 34 -a 2 -x {1.0 5.0 34 ------- null}
d -t 5.580004 -s 2 -d 8 -p cbr -e 1000 -c 2 -i 34 -a 2 -x {1.0 5.0 34 ------- null}
r -t 5.620004 -s 8 -d 5 -p cbr -e 1000 -c 2 -i 34 -a 2 -x {1.0 5.0 34 ------- null}
h -t 5.7 -s 1 -d 8 -p cbr -e 1000 -c 2 -i 35 -a 2 -x {1.0 5.0 35 ------- null}
+ -t 5.74 -s 1 -d 8 -p cbr -e 1000 -c 2 -i 35 -a 2 -x {1.0 5.0 35 ------- null}
- -t 5.74 -s 1 -d 8 -p cbr -e 1000 -c 2 -i 35 -a 2 -x {1.0 5.0 35 ------- null}
h -t 5.74 -s 1 -d 8 -p cbr -e 1000 -c 2 -i 35 -a 2 -x {1.0 5.0 -1 ------- null}
d -t 5.740004 -s 7 -d 8 -p cbr -e 1000 -c 2 -i 35 -a 2 -x {1.0 5.0 35 ------- null}
d -t 5.740004 -s 6 -d 8 -p cbr -e 1000 -c 2 -i 35 -a 2 -x {1.0 5.0 35 ------- null}
d -t 5.740004 -s 4 -d 8 -p cbr -e 1000 -c 2 -i 35 -a 2 -x {1.0 5.0 35 ------- null}