h 0.1 1 8 cbr 1000 ------- 2 1.0 5.0 0 0
+ 0.14 1 8 cbr 1000 ------- 2 1.0 5.0 0 0
- 0.14 1 8 cbr 1000 ------- 2 1.0 5.0 0 0
d 0.140004 7 8 cbr 1000 ------- 2 1.0 5.0 0 0
d 0.140004 6 8 cbr 1000 ------- 2 1.0 5.0 0 0
d 0.140004 4 8 cbr 1000 ------- 2 1.0 5.0 0 0
d 0.140004 3 8 cbr 1000 ------- 2 1.0 5.0 0 0
d 0.140004 2 8 cbr 1000 ------- 2 1.0 5.0 0 0
r 0.180004 8 5 cbr 1000 ------- 2 1.0 5.0 0 0
h 0.26 1 8 cbr 1000 ------- 2 1.0 5.0 1 1
+ 0.3 1 8 cbr 1000 ------- 2 1.0 5.0 1 1
- 0.3 1 8 cbr 1000 ------- 2 1.0 5.0 1 1
d 0.300004 7 8 cbr 1000 ------- 2 1.0 5.0 1 1
d 0.300004 6 8 cbr 1000 ------- 2 1.0 5.0 1 1
d 0.300004 4 8 cbr 1000 ------- 2 1.0 5.0 1 1
d 0.300004 3 8 cbr 1000 ------- 2 1.0 5.0 1 1
d 0.300004 2 8 cbr 1000 ------- 2 1.0 5.0 1 1
r 0.340004 8 5 cbr 1000 ------- 2 1.0 5.0 1 1
h 0.42 1 8 cbr 1000 ------- 2 1.0 5.0 2 2
+ 0.46 1 8 cbr 1000 ------- 2 1.0 5.0 2 2
- 0.46 1 8 cbr 1000 ------- 2 1.0 5.0 2 2
d 0.460004 7 8 cbr 1000 ------- 2 1.0 5.0 2 2
d 0.460004 6 8 cbr 1000 ------- 2 1.0 5.0 2 2
d 0.460004 4 8 cbr 1000 ------- 2 1.0 5.0 2 2
d 0.460004 3 8 cbr 1000 ------- 2 1.0 5.0 2 2
d 0.460004 2 8 cbr 1000 ------- 2 1.0 5.0 2 2
r 0.500004 8 5 cbr 1000 ------- 2 1.0 5.0 2 2
h 0.58 1 8 cbr 1000 ------- 2 1.0 5.0 3 3
+ 0.62 1 8 cbr 1000 ------- 2 1.0 5.0 3 3
- 0.62 1 8 cbr 1000 ------- 2 1.0 5.0 3 3
d 0.620004 7 8 cbr 1000 ------- 2 1.0 5.0 3 3
d 0.620004 6 8 cbr 1000 ------- 2 1.0 5.0 3 3
d 0.620004 4 8 cbr 1000 ------- 2 1.0 5.0 3 3
d 0.620004 3 8 cbr 1000 ------- 2 1.0 5.0 3 3
d 0.620004 2 8 cbr 1000 ------- 2 1.0 5.0 3 3
r 0.660004 8 5 cbr 1000 ------- 2 1.0 5.0 3 3
h 0.74 1 8 cbr 1000 ------- 2 1.0 5.0 4 4
+ 0.78 1 8 cbr 1000 ------- 2 1.0 5.0 4 4
- 0.78 1 8 cbr 1000 ------- 2 1.0 5.0 4 4
d 0.780004 7 8 cbr 1000 ------- 2 1.0 5.0 4 4
d 0.780004 6 8 cbr 1000 ------- 2 1.0 5.0 4 4
d 0.780004 4 8 cbr 1000 ------- 2 1.0 5.0 4 4
d 0.780004 3 8 cbr 1000 ------- 2 1.0 5.0 4 4
d 0.780004 2 8 cbr 1000 ------- 2 1.0 5.0 4 4
r 0.820004 8 5 cbr 1000 ------- 2 1.0 5.0 4 4
h 0.9 1 8 cbr 1000 ------- 2 1.0 5.0 5 5
+ 0.94 1 8 cbr 1000 ------- 2 1.0 5.0 5 5
- 0.94 1 8 cbr 1000 ------- 2 1.0 5.0 5 5
d 0.940004 7 8 cbr 1000 ------- 2 1.0 5.0 5 5
d 0.940004 6 8 cbr 1000 ------- 2 1.0 5.0 5 5
d 0.940004 4 8 cbr 1000 ------- 2 1.0 5.0 5 5
d 0.940004 3 8 cbr 1000 ------- 2 1.0 5.0 5 5
d 0.940004 2 8 cbr 1000 ------- 2 1.0 5.0 5 5
r 0.980004 8 5 cbr 1000 ------- 2 1.0 5.0 5 5
h 1.06 1 8 cbr 1000 ------- 2 1.0 5.0 6 6
+ 1.1 1 8 cbr 1000 ------- 2 1.0 5.0 6 6
- 1.1 1 8 cbr 1000 ------- 2 1.0 5.0 6 6
d 1.100004 7 8 cbr 1000 ------- 2 1.0 5.0 6 6
d 1.100004 6 8 cbr 1000 ------- 2 1.0 5.0 6 6
d 1.100004 4 8 cbr 1000 ------- 2 1.0 5.0 6 6
d 1.100004 3 8 cbr 1000 ------- 2 1.0 5.0 6 6
d 1.100004 2 8 cbr 1000 ------- 2 1.0 5.0 6 6
r 1.140004 8 5 cbr 1000 ------- 2 1.0 5.0 6 6
h 1.22 1 8 cbr 1000 ------- 2 1.0 5.0 7 7
+ 1.26 1 8 cbr 1000 ------- 2 1.0 5.0 7 7
- 1.26 1 8 cbr 1000 ------- 2 1.0 5.0 7 7
d 1.260004 7 8 cbr 1000 ------- 2 1.0 5.0 7 7
d 1.260004 6 8 cbr 1000 ------- 2 1.0 5.0 7 7
d 1.260004 4 8 cbr 1000 ------- 2 1.0 5.0 7 7
d 1.260004 3 8 cbr 1000 ------- 2 1.0 5.0 7 7
d 1.260004 2 8 cbr 1000 ------- 2 1.0 5.0 7 7
r 1.300004 8 5 cbr 1000 ------- 2 1.0 5.0 7 7
h 1.38 1 8 cbr 1000 ------- 2 1.0 5.0 8 8
+ 1.42 1 8 cbr 1000 ------- 2 1.0 5.0 8 8
- 1.42 1 8 cbr 1000 ------- 2 1.0 5.0 8 8
d 1.420004 7 8 cbr 1000 ------- 2 1.0 5.0 8 8
d 1.420004 6 8 cbr 1000 ------- 2 1.0 5.0 8 8
d 1.420004 4 8 cbr 1000 ------- 2 1.0 5.0 8 8
d 1.420004 3 8 cbr 1000 ------- 2 1.0 5.0 8 8
d 1.420004 2 8 cbr 1000 ------- 2 1.0 5.0 8 8
r 1.460004 8 5 cbr 1000 ------- 2 1.0 5.0 8 8
h 1.54 1 8 cbr 1000 ------- 2 1.0 5.0 9 9
+ 1.58 1 8 cbr 1000 ------- 2 1.0 5.0 9 9
- 1.58 1 8 cbr 1000 ------- 2 1.0 5.0 9 9
d 1.580004 7 8 cbr 1000 ------- 2 1.0 5.0 9 9
d 1.580004 6 8 cbr 1000 ------- 2 1.0 5.0 9 9
d 1.580004 4 8 cbr 1000 ------- 2 1.0 5.0 9 9
d 1.580004 3 8 cbr 1000 ------- 2 1.0 5.0 9 9
d 1.580004 2 8 cbr 1000 ------- 2 1.0 5.0 9 9
r 1.620004 8 5 cbr 1000 ------- 2 1.0 5.0 9 9
h 1.7 1 8 cbr 1000 ------- 2 1.0 5.0 10 10
+ 1.74 1 8 cbr 1000 ------- 2 1.0 5.0 10 10
- 1.74 1 8 cbr 1000 ------- 2 1.0 5.0 10 10
d 1.740004 7 8 cbr 1000 ------- 2 1.0 5.0 10 10
d 1.740004 6 8 cbr 1000 ------- 2 1.0 5.0 10 10
d 1.740004 4 8 cbr 1000 ------- 2 1.0 5.0 10 10
d 1.740004 3 8 cbr 1000 ------- 2 1.0 5.0 10 10
d 1.740004 2 8 cbr 1000 ------- 2 1.0 5.0 10 10
r 1.780004 8 5 cbr 1000 ------- 2 1.0 5.0 10 10
h 1.86 1 8 cbr 1000 ------- 2 1.0 5.0 11 11
+ 1.9 1 8 cbr 1000 ------- 2 1.0 5.0 11 11
- 1.9 1 8 cbr 1000 ------- 2 1.0 5.0 11 11
d 1.900004 7 8 cbr 1000 ------- 2 1.0 5.0 11 11
d 1.900004 6 8 cbr 1000 ------- 2 1.0 5.0 11 11
d 1.900004 4 8 cbr 1000 ------- 2 1.0 5.0 11 11
d 1.900004 3 8 cbr 1000 ------- 2 1.0 5.0 11 11
d 1.900004 2 8 cbr 1000 ------- 2 1.0 5.0 11 11
r 1.940004 8 5 cbr 1000 ------- 2 1.0 5.0 11 11
h 2.02 1 8 cbr 1000 ------- 2 1.0 5.0 12 12
+ 2.06 1 8 cbr 1000 ------- 2 1.0 5.0 12 12
- 2.06 1 8 cbr 1000 ------- 2 1.0 5.0 12 12
d 2.060004 7 8 cbr 1000 ------- 2 1.0 5.0 12 12
d 2.060004 6 8 cbr 1000 ------- 2 1.0 5.0 12 12
d 2.060004 4 8 cbr 1000 ------- 2 1.0 5.0 12 12
d 2.060004 3 8 cbr 1000 ------- 2 1.0 5.0 12 12
d 2.060004 2 8 cbr 1000 ------- 2 1.0 5.0 12 12
r 2.100004 8 5 cbr 1000 ------- 2 1.0 5.0 12 12
h 2.18 1 8 cbr 1000 ------- 2 1.0 5.0 13 13
+ 2.22 1 8 cbr 1000 ------- 2 1.0 5.0 13 13
- 2.22 1 8 cbr 1000 ------- 2 1.0 5.0 13 13
d 2.220004 7 8 cbr 1000 ------- 2 1.0 5.0 13 13
d 2.220004 6 8 cbr 1000 ------- 2 1.0 5.0 13 13
d 2.220004 4 8 cbr 1000 ------- 2 1.0 5.0 13 13
d 2.220004 3 8 cbr 1000 ------- 2 1.0 5.0 13 13
d 2.220004 2 8 cbr 1000 ------- 2 1.0 5.0 13 13
r 2.260004 8 5 cbr 1000 ------- 2 1.0 5.0 13 13
h 2.34 1 8 cbr 1000 ------- 2 1.0 5.0 14 14
+ 2.38 1 8 cbr 1000 ------- 2 1.0 5.0 14 14
- 2.38 1 8 cbr 1000 ------- 2 1.0 5.0 14 14
d 2.380004 7 8 cbr 1000 ------- 2 1.0 5.0 14 14
d 2.380004 6 8 cbr 1000 ------- 2 1.0 5.0 14 14
d 2.380004 4 8 cbr 1000 ------- 2 1.0 5.0 14 14
d 2.380004 3 8 cbr 1000 ------- 2 1.0 5.0 14 14
d 2.380004 2 8 cbr 1000 ------- 2 1.0 5.0 14 14
r 2.420004 8 5 cbr 1000 ------- 2 1.0 5.0 14 14
h 2.5 1 8 cbr 1000 ------- 2 1.0 5.0 15 15
+ 2.54 1 8 cbr 1000 ------- 2 1.0 5.0 15 15
- 2.54 1 8 cbr 1000 ------- 2 1.0 5.0 15 15
d 2.540004 7 8 cbr 1000 ------- 2 1.0 5.0 15 15
d 2.540004 6 8 cbr 1000 ------- 2 1.0 5.0 15 15
d 2.540004 4 8 cbr 1000 ------- 2 1.0 5.0 15 15
d 2.540004 3 8 cbr 1000 ------- 2 1.0 5.0 15 15
d 2.540004 2 8 cbr 1000 ------- 2 1.0 5.0 15 15
r 2.580004 8 5 cbr 1000 ------- 2 1.0 5.0 15 15
h 2.66 1 8 cbr 1000 ------- 2 1.0 5.0 16 16
+ 2.7 1 8 cbr 1000 ------- 2 1.0 5.0 16 16
- 2.7 1 8 cbr 1000 ------- 2 1.0 5.0 16 16
d 2.700004 7 8 cbr 1000 ------- 2 1.0 5.0 16 16
d 2.700004 6 8 cbr 1000 ------- 2 1.0 5.0 16 16
d 2.700004 4 8 cbr 1000 ------- 2 1.0 5.0 16 16
d 2.700004 3 8 cbr 1000 ------- 2 1.0 5.0 16 16
d 2.700004 2 8 cbr 1000 ------- 2 1.0 5.0 16 16
r 2.740004 8 5 cbr 1000 ------- 2 1.0 5.0 16 16
h 2.82 1 8 cbr 1000 ------- 2 1.0 5.0 17 17
+ 2.86 1 8 cbr 1000 ------- 2 1.0 5.0 17 17
- 2.86 1 8 cbr 1000 ------- 2 1.0 5.0 17 17
d 2.860004 7 8 cbr 1000 ------- 2 1.0 5.0 17 17
d 2.860004 6 8 cbr 1000 ------- 2 1.0 5.0 17 17
d 2.860004 4 8 cbr 1000 ------- 2 1.0 5.0 17 17
d 2.860004 3 8 cbr 1000 ------- 2 1.0 5.0 17 17
d 2.860004 2 8 cbr 1000 ------- 2 1.0 5.0 17 17
r 2.900004 8 5 cbr 1000 ------- 2 1.0 5.0 17 17
h 2.98 1 8 cbr 1000 ------- 2 1.0 5.0 18 18
+ 3.02 1 8 cbr 1000 ------- 2 1.0 5.0 18 18
- 3.02 1 8 cbr 1000 ------- 2 1.0 5.0 18 18
d 3.020004 7 8 cbr 1000 ------- 2 1.0 5.0 18 18
d 3.020004 6 8 cbr 1000 ------- 2 1.0 5.0 18 18
d 3.020004 4 8 cbr 1000 ------- 2 1.0 5.0 18 18
d 3.020004 3 8 cbr 1000 ------- 2 1.0 5.0 18 18
d 3.020004 2 8 cbr 1000 ------- 2 1.0 5.0 18 18
r 3.060004 8 5 cbr 1000 ------- 2 1.0 5.0 18 18
h 3.14 1 8 cbr 1000 ------- 2 1.0 5.0 19 19
+ 3.18 1 8 cbr 1000 ------- 2 1.0 5.0 19 19
- 3.18 1 8 cbr 1000 ------- 2 1.0 5.0 19 19
d 3.180004 7 8 cbr 1000 ------- 2 1.0 5.0 19 19
d 3.180004 6 8 cbr 1000 ------- 2 1.0 5.0 19 19
d 3.180004 4 8 cbr 1000 ------- 2 1.0 5.0 19 19
d 3.180004 3 8 cbr 1000 ------- 2 1.0 5.0 19 19
d 3.180004 2 8 cbr 1000 ------- 2 1.0 5.0 19 19
r 3.220004 8 5 cbr 1000 ------- 2 1.0 5.0 19 19
h 3.3 1 8 cbr 1000 ------- 2 1.0 5.0 20 20
+ 3.34 1 8 cbr 1000 ------- 2 1.0 5.0 20 20
- 3.34 1 8 cbr 1000 ------- 2 1.0 5.0 20 20
d 3.340004 7 8 cbr 1000 ------- 2 1.0 5.0 20 20
d 3.340004 6 8 cbr 1000 ------- 2 1.0 5.0 20 20
d 3.340004 4 8 cbr 1000 ------- 2 1.0 5.0 20 20
d 3.340004 3 8 cbr 1000 ------- 2 1.0 5.0 20 20
d 3.340004 2 8 cbr 1000 ------- 2 1.0 5.0 20 20
r 3.380004 8 5 cbr 1000 ------- 2 1.0 5.0 20 20
h 3.46 1 8 cbr 1000 ------- 2 1.0 5.0 21 21
+ 3.5 1 8 cbr 1000 ------- 2 1.0 5.0 21 21
- 3.5 1 8 cbr 1000 ------- 2 1.0 5.0 21 21
d 3.500004 7 8 cbr 1000 ------- 2 1.0 5.0 21 21
d 3.500004 6 8 cbr 1000 ------- 2 1.0 5.0 21 21
d 3.500004 4 8 cbr 1000 ------- 2 1.0 5.0 21 21
d 3.500004 3 8 cbr 1000 ------- 2 1.0 5.0 21 21
d 3.500004 2 8 cbr 1000 ------- 2 1.0 5.0 21 21
r 3.540004 8 5 cbr 1000 ------- 2 1.0 5.0 21 21
h 3.62 1 8 cbr 1000 ------- 2 1.0 5.0 22 22
+ 3.66 1 8 cbr 1000 ------- 2 1.0 5.0 22 22
- 3.66 1 8 cbr 1000 ------- 2 1.0 5.0 22 22
d 3.660004 7 8 cbr 1000 ------- 2 1.0 5.0 22 22
d 3.660004 6 8 cbr 1000 ------- 2 1.0 5.0 22 22
d 3.660004 4 8 cbr 1000 ------- 2 1.0 5.0 22 22
d 3.660004 3 8 cbr 1000 ------- 2 1.0 5.0 22 22
d 3.660004 2 8 cbr 1000 ------- 2 1.0 5.0 22 22
r 3.700004 8 5 cbr 1000 ------- 2 1.0 5.0 22 22
h 3.78 1 8 cbr 1000 ------- 2 1.0 5.0 23 23
+ 3.82 1 8 cbr 1000 ------- 2 1.0 5.0 23 23
- 3.82 1 8 cbr 1000 ------- 2 1.0 5.0 23 23
d 3.820004 7 8 cbr 1000 ------- 2 1.0 5.0 23 23
d 3.820004 6 8 cbr 1000 ------- 2 1.0 5.0 23 23
d 3.820004 4 8 cbr 1000 ------- 2 1.0 5.0 23 23
d 3.820004 3 8 cbr 1000 ------- 2 1.0 5.0 23 23
d 3.820004 2 8 cbr 1000 ------- 2 1.0 5.0 23 23
r 3.860004 8 5 cbr 1000 ------- 2 1.0 5.0 23 23
h 3.94 1 8 cbr 1000 ------- 2 1.0 5.0 24 24
+ 3.98 1 8 cbr 1000 ------- 2 1.0 5.0 24 24
- 3.98 1 8 cbr 1000 ------- 2 1.0 5.0 24 24
d 3.980004 7 8 cbr 1000 ------- 2 1.0 5.0 24 24
d 3.980004 6 8 cbr 1000 ------- 2 1.0 5.0 24 24
d 3.980004 4 8 cbr 1000 ------- 2 1.0 5.0 24 24
d 3.980004 3 8 cbr 1000 ------- 2 1.0 5.0 24 24
d 3.980004 2 8 cbr 1000 ------- 2 1.0 5.0 24 24
r 4.020004 8 5 cbr 1000 ------- 2 1.0 5.0 24 24
h 4.1 1 8 cbr 1000 ------- 2 1.0 5.0 25 25
+ 4.14 1 8 cbr 1000 ------- 2 1.0 5.0 25 25
- 4.14 1 8 cbr 1000 ------- 2 1.0 5.0 25 25
d 4.140004 7 8 cbr 1000 ------- 2 1.0 5.0 25 25
d 4.140004 6 8 cbr 1000 ------- 2 1.0 5.0 25 25
d 4.140004 4 8 cbr 1000 ------- 2 1.0 5.0 25 25
d 4.140004 3 8 cbr 1000 ------- 2 1.0 5.0 25 25
d 4.140004 2 8 cbr 1000 ------- 2 1.0 5.0 25 25
r 4.180004 8 5 cbr 1000 ------- 2 1.0 5.0 25 25
h 4.26 1 8 cbr 1000 ------- 2 1.0 5.0 26 26
+ 4.3 1 8 cbr 1000 ------- 2 1.0 5.0 26 26
- 4.3 1 8 cbr 1000 ------- 2 1.0 5.0 26 26
d 4.300004 7 8 cbr 1000 ------- 2 1.0 5.0 26 26
d 4.300004 6 8 cbr 1000 ------- 2 1.0 5.0 26 26
d 4.300004 4 8 cbr 1000 ------- 2 1.0 5.0 26 26
d 4.300004 3 8 cbr 1000 ------- 2 1.0 5.0 26 26
d 4.300004 2 8 cbr 1000 ------- 2 1.0 5.0 26 26
r 4.340004 8 5 cbr 1000 ------- 2 1.0 5.0 26 26
h 4.42 1 8 cbr 1000 ------- 2 1.0 5.0 27 27
+ 4.46 1 8 cbr 1000 ------- 2 1.0 5.0 27 27
- 4.46 1 8 cbr 1000 ------- 2 1.0 5.0 27 27
d 4.460004 7 8 cbr 1000 ------- 2 1.0 5.0 27 27
d 4.460004 6 8 cbr 1000 ------- 2 1.0 5.0 27 27
d 4.460004 4 8 cbr 1000 ------- 2 1.0 5.0 27 27
d 4.460004 3 8 cbr 1000 ------- 2 1.0 5.0 27 27
d 4.460004 2 8 cbr 1000 ------- 2 1.0 5.0 27 27
r 4.500004 8 5 cbr 1000 ------- 2 1.0 5.0 27 27
h 4.58 1 8 cbr 1000 ------- 2 1.0 5.0 28 28
+ 4.62 1 8 cbr 1000 ------- 2 1.0 5.0 28 28
- 4.62 1 8 cbr 1000 ------- 2 1.0 5.0 28 28
d 4.620004 7 8 cbr 1000 ------- 2 1.0 5.0 28 28
d 4.620004 6 8 cbr 1000 ------- 2 1.0 5.0 28 28
d 4.620004 4 8 cbr 1000 ------- 2 1.0 5.0 28 28
d 4.620004 3 8 cbr 1000 ------- 2 1.0 5.0 28 28
d 4.620004 2 8 cbr 1000 ------- 2 1.0 5.0 28 28
r 4.660004 8 5 cbr 1000 ------- 2 1.0 5.0 28 28
h 4.74 1 8 cbr 1000 ------- 2 1.0 5.0 29 29
+ 4.78 1 8 cbr 1000 ------- 2 1.0 5.0 29 29
- 4.78 1 8 cbr 1000 ------- 2 1.0 5.0 29 29
d 4.780004 7 8 cbr 1000 ------- 2 1.0 5.0 29 29
d 4.780004 6 8 cbr 1000 ------- 2 1.0 5.0 29 29
d 4.780004 4 8 cbr 1000 ------- 2 1.0 5.0 29 29
d 4.780004 3 8 cbr 1000 ------- 2 1.0 5.0 29 29
d 4.780004 2 8 cbr 1000 ------- 2 1.0 5.0 29 29
r 4.820004 8 5 cbr 1000 ------- 2 1.0 5.0 29 29
h 4.9 1 8 cbr 1000 ------- 2 1.0 5.0 30 30
+ 4.94 1 8 cbr 1000 ------- 2 1.0 5.0 30 30
- 4.94 1 8 cbr 1000 ------- 2 1.0 5.0 30 30
d 4.940004 7 8 cbr 1000 ------- 2 1.0 5.0 30 30
d 4.940004 6 8 cbr 1000 ------- 2 1.0 5.0 30 30
d 4.940004 4 8 cbr 1000 ------- 2 1.0 5.0 30 30
d 4.940004 3 8 cbr 1000 ------- 2 1.0 5.0 30 30
d 4.940004 2 8 cbr 1000 ------- 2 1.0 5.0 30 30
r 4.980004 8 5 cbr 1000 ------- 2 1.0 5.0 30 30
h 5.06 1 8 cbr 1000 ------- 2 1.0 5.0 31 31
+ 5.1 1 8 cbr 1000 ------- 2 1.0 5.0 31 31
- 5.1 1 8 cbr 1000 ------- 2 1.0 5.0 31 31
d 5.100004 7 8 cbr 1000 ------- 2 1.0 5.0 31 31
d 5.100004 6 8 cbr 1000 ------- 2 1.0 5.0 31 31
d 5.100004 4 8 cbr 1000 ------- 2 1.0 5.0 31 31
d 5.100004 3 8 cbr 1000 ------- 2 1.0 5.0 31 31
d 5.100004 2 8 cbr 1000 ------- 2 1.0 5.0 31 31
r 5.140004 8 5 cbr 1000 ------- 2 1.0 5.0 31 31
h 5.22 1 8 cbr 1000 ------- 2 1.0 5.0 32 32
+ 5.26 1 8 cbr 1000 ------- 2 1.0 5.0 32 32
- 5.26 1 8 cbr 1000 ------- 2 1.0 5.0 32 32
d 5.260004 7 8 cbr 1000 ------- 2 1.0 5.0 32 32
d 5.260004 6 8 cbr 1000 ------- 2 1.0 5.0 32 32
d 5.260004 4 8 cbr 1000 ------- 2 1.0 5.0 32 32
d 5.260004 3 8 cbr 1000 ------- 2 1.0 5.0 32 32
d 5.260004 2 8 cbr 1000 ------- 2 1.0 5.0 32 32
r 5.300004 8 5 cbr 1000 ------- 2 1.0 5.0 32 32
h 5.38 1 8 cbr 1000 ------- 2 1.0 5.0 33 33
+ 5.42 1 8 cbr 1000 ------- 2 1.0 5.0 33 33
- 5.42 1 8 cbr 1000 ------- 2 1.0 5.0 33 33
d 5.420004 7 8 cbr 1000 ------- 2 1.0 5.0 33 33
d 5.420004 6 8 cbr 1000 ------- 2 1.0 5.0 33 33
d 5.420004 4 8 cbr 1000 ------- 2 1.0 5.0 33 33
d 5.420004 3 8 cbr 1000 ------- 2 1.0 5.0 33 33
d 5.420004 2 8 cbr 1000 ------- 2 1.0 5.0 33 33
r 5.460004 8 5 cbr 1000 ------- 2 1.0 5.0 33 33
h 5.54 1 8 cbr 1000 ------- 2 1.0 5.0 34 34
+ 5.58 1 8 cbr 1000 ------- 2 1.0 5.0 34 34
- 5.58 1 8 cbr 1000 ------- 2 1.0 5.0 34 34
d 5.580004 7 8 cbr 1000 ------- 2 1.0 5.0 34 34
d 5.580004 6 8 cbr 1000 ------- 2 1.0 5.0 34 34
d 5.580004 4 8 cbr 1000 ------- 2 1.0 5.0 34 34
d 5.580004 3 8 cbr 1000 ------- 2 1.0 5.0 34 34
d 5.580004 2 8 cbr 1000 ------- 2 1.0 5.0 34 34
r 5.620004 8 5 cbr 1000 ------- 2 1.0 5.0 34 34
h 5.7 1 8 cbr 1000 ------- 2 1.0 5.0 35 35
+ 5.74 1 8 cbr 1000 ------- 2 1.0 5.0 35 35
- 5.74 1 8 cbr 1000 ------- 2 1.0 5.0 35 35
d 5.740004 7 8 cbr 1000 ------- 2 1.0 5.0 35 35
d 5.740004 6 8 cbr 1000 ------- 2 1.0 5.0 35 35
d 5.740004 4 8 cbr 1000 ------- 2 1.0 5.0 35 35
d 5.740004 3 8 cbr 1000 ------- 2 1.0 5.0 35 35
d 5.740004 2 8 cbr 1000 ------- 2 1.0 5.0 35 35
r 5.780004 8 5 cbr 1000 ------- 2 1.0 5.0 35 35
h 5.86 1 8 cbr 1000 ------- 2 1.0 5.0 36 36
+ 5.9 1 8 cbr 1000 ------- 2 1.0 5.0 36 36
- 5.9 1 8 cbr 1000 ------- 2 1.0 5.0 36 36
d 5.900004 7 8 cbr 1000 ------- 2 1.0 5.0 36 36
d 5.900004 6 8 cbr 1000 ------- 2 1.0 5.0 36 36
d 5.900004 4 8 cbr 1000 ------- 2 1.0 5.0 36 36
d 5.900004 3 8 cbr 1000 ------- 2 1.0 5.0 36 36
d 5.900004 2 8 cbr 1000 ------- 2 1.0 5.0 36 36
r 5.940004 8 5 cbr 1000 ------- 2 1.0 5.0 36 36
h 6.02 1 8 cbr 1000 ------- 2 1.0 5.0 37 37
+ 6.06 1 8 cbr 1000 ------- 2 1.0 5.0 37 37
- 6.06 1 8 cbr 1000 ------- 2 1.0 5.0 37 37
d 6.060004 7 8 cbr 1000 ------- 2 1.0 5.0 37 37
d 6.060004 6 8 cbr 1000 ------- 2 1.0 5.0 37 37
d 6.060004 4 8 cbr 1000 ------- 2 1.0 5.0 37 37
d 6.060004 3 8 cbr 1000 ------- 2 1.0 5.0 37 37
d 6.060004 2 8 cbr 1000 ------- 2 1.0 5.0 37 37
r 6.100004 8 5 cbr 1000 ------- 2 1.0 5.0 37 37
h 6.18 1 8 cbr 1000 ------- 2 1.0 5.0 38 38
+ 6.22 1 8 cbr 1000 ------- 2 1.0 5.0 38 38
- 6.22 1 8 cbr 1000 ------- 2 1.0 5.0 38 38
d 6.220004 7 8 cbr 1000 ------- 2 1.0 5.0 38 38
d 6.220004 6 8 cbr 1000 ------- 2 1.0 5.0 38 38
d 6.220004 4 8 cbr 1000 ------- 2 1.0 5.0 38 38
d 6.220004 3 8 cbr 1000 ------- 2 1.0 5.0 38 38
d 6.220004 2 8 cbr 1000 ------- 2 1.0 5.0 38 38
r 6.260004 8 5 cbr 1000 ------- 2 1.0 5.0 38 38
h 6.34 1 8 cbr 1000 ------- 2 1.0 5.0 39 39
+ 6.38 1 8 cbr 1000 ------- 2 1.0 5.0 39 39
- 6.38 1 8 cbr 1000 ------- 2 1.0 5.0 39 39
d 6.380004 7 8 cbr 1000 ------- 2 1.0 5.0 39 39
d 6.380004 6 8 cbr 1000 ------- 2 1.0 5.0 39 39
d 6.380004 4 8 cbr 1000 ------- 2 1.0 5.0 39 39
d 6.380004 3 8 cbr 1000 ------- 2 1.0 5.0 39 39
d 6.380004 2 8 cbr 1000 ------- 2 1.0 5.0 39 39
r 6.420004 8 5 cbr 1000 ------- 2 1.0 5.0 39 39
h 6.5 1 8 cbr 1000 ------- 2 1.0 5.0 40 40
+ 6.54 1 8 cbr 1000 ------- 2 1.0 5.0 40 40
- 6.54 1 8 cbr 1000 ------- 2 1.0 5.0 40 40
d 6.540004 7 8 cbr 1000 ------- 2 1.0 5.0 40 40
d 6.540004 6 8 cbr 1000 ------- 2 1.0 5.0 40 40
d 6.540004 4 8 cbr 1000 ------- 2 1.0 5.0 40 40
d 6.540004 3 8 cbr 1000 ------- 2 1.0 5.0 40 40
d 6.540004 2 8 cbr 1000 ------- 2 1.0 5.0 40 40
r 6.580004 8 5 cbr 1000 ------- 2 1.0 5.0 40 40
h 6.66 1 8 cbr 1000 ------- 2 1.0 5.0 41 41
+ 6.7 1 8 cbr 1000 ------- 2 1.0 5.0 41 41
- 6.7 1 8 cbr 1000 ------- 2 1.0 5.0 41 41
d 6.700004 7 8 cbr 1000 ------- 2 1.0 5.0 41 41
d 6.700004 6 8 cbr 1000 ------- 2 1.0 5.0 41 41
d 6.700004 4 8 cbr 1000 ------- 2 1.0 5.0 41 41
d 6.700004 3 8 cbr 1000 ------- 2 1.0 5.0 41 41
d 6.700004 2 8 cbr 1000 ------- 2 1.0 5.0 41 41
r 6.740004 8 5 cbr 1000 ------- 2 1.0 5.0 41 41
h 6.82 1 8 cbr 1000 ------- 2 1.0 5.0 42 42
+ 6.86 1 8 cbr 1000 ------- 2 1.0 5.0 42 42
- 6.86 1 8 cbr 1000 ------- 2 1.0 5.0 42 42
d 6.860004 7 8 cbr 1000 ------- 2 1.0 5.0 42 42
d 6.860004 6 8 cbr 1000 ------- 2 1.0 5.0 42 42
d 6.860004 4 8 cbr 1000 ------- 2 1.0 5.0 42 42
d 6.860004 3 8 cbr 1000 ------- 2 1.0 5.0 42 42
d 6.860004 2 8 cbr 1000 ------- 2 1.0 5.0 42 42
r 6.900004 8 5 cbr 1000 ------- 2 1.0 5.0 42 42
h 6.98 1 8 cbr 1000 ------- 2 1.0 5.0 43 43
+ 7.02 1 8 cbr 1000 ------- 2 1.0 5.0 43 43
- 7.02 1 8 cbr 1000 ------- 2 1.0 5.0 43 43
d 7.020004 7 8 cbr 1000 ------- 2 1.0 5.0 43 43
d 7.020004 6 8 cbr 1000 ------- 2 1.0 5.0 43 43
d 7.020004 4 8 cbr 1000 ------- 2 1.0 5.0 43 43
d 7.020004 3 8 cbr 1000 ------- 2 1.0 5.0 43 43
d 7.020004 2 8 cbr 1000 ------- 2 1.0 5.0 43 43
r 7.060004 8 5 cbr 1000 ------- 2 1.0 5.0 43 43
h 7.14 1 8 cbr 1000 ------- 2 1.0 5.0 44 44
+ 7.18 1 8 cbr 1000 ------- 2 1.0 5.0 44 44
- 7.18 1 8 cbr 1000 ------- 2 1.0 5.0 44 44
d 7.180004 7 8 cbr 1000 ------- 2 1.0 5.0 44 44
d 7.180004 6 8 cbr 1000 ------- 2 1.0 5.0 44 44
d 7.180004 4 8 cbr 1000 ------- 2 1.0 5.0 44 44
d 7.180004 3 8 cbr 1000 ------- 2 1.0 5.0 44 44
d 7.180004 2 8 cbr 1000 ------- 2 1.0 5.0 44 44
r 7.220004 8 5 cbr 1000 ------- 2 1.0 5.0 44 44
h 7.3 1 8 cbr 1000 ------- 2 1.0 5.0 45 45
+ 7.34 1 8 cbr 1000 ------- 2 1.0 5.0 45 45
- 7.34 1 8 cbr 1000 ------- 2 1.0 5.0 45 45
d 7.340004 7 8 cbr 1000 ------- 2 1.0 5.0 45 45
d 7.340004 6 8 cbr 1000 ------- 2 1.0 5.0 45 45
d 7.340004 4 8 cbr 1000 ------- 2 1.0 5.0 45 45
d 7.340004 3 8 cbr 1000 ------- 2 1.0 5.0 45 45
d 7.340004 2 8 cbr 1000 ------- 2 1.0 5.0 45 45
r 7.380004 8 5 cbr 1000 ------- 2 1.0 5.0 45 45
h 7.46 1 8 cbr 1000 ------- 2 1.0 5.0 46 46
+ 7.5 1 8 cbr 1000 ------- 2 1.0 5.0 46 46
- 7.5 1 8 cbr 1000 ------- 2 1.0 5.0 46 46
d 7.500004 7 8 cbr 1000 ------- 2 1.0 5.0 46 46
d 7.500004 6 8 cbr 1000 ------- 2 1.0 5.0 46 46
d 7.500004 4 8 cbr 1000 ------- 2 1.0 5.0 46 46
d 7.500004 3 8 cbr 1000 ------- 2 1.0 5.0 46 46
d 7.500004 2 8 cbr 1000 ------- 2 1.0 5.0 46 46
r 7.540004 8 5 cbr 1000 ------- 2 1.0 5.0 46 46
h 7.62 1 8 cbr 1000 ------- 2 1.0 5.0 47 47
+ 7.66 1 8 cbr 1000 ------- 2 1.0 5.0 47 47
- 7.66 1 8 cbr 1000 ------- 2 1.0 5.0 47 47
d 7.660004 7 8 cbr 1000 ------- 2 1.0 5.0 47 47
d 7.660004 6 8 cbr 1000 ------- 2 1.0 5.0 47 47
d 7.660004 4 8 cbr 1000 ------- 2 1.0 5.0 47 47
d 7.660004 3 8 cbr 1000 ------- 2 1.0 5.0 47 47
d 7.660004 2 8 cbr 1000 ------- 2 1.0 5.0 47 47
r 7.700004 8 5 cbr 1000 ------- 2 1.0 5.0 47 47
h 7.78 1 8 cbr 1000 ------- 2 1.0 5.0 48 48
+ 7.82 1 8 cbr 1000 ------- 2 1.0 5.0 48 48
- 7.82 1 8 cbr 1000 ------- 2 1.0 5.0 48 48
d 7.820004 7 8 cbr 1000 ------- 2 1.0 5.0 48 48
d 7.820004 6 8 cbr 1000 ------- 2 1.0 5.0 48 48
d 7.820004 4 8 cbr 1000 ------- 2 1.0 5.0 48 48
d 7.820004 3 8 cbr 1000 ------- 2 1.0 5.0 48 48
d 7.820004 2 8 cbr 1000 ------- 2 1.0 5.0 48 48
r 7.860004 8 5 cbr 1000 ------- 2 1.0 5.0 48 48
h 7.94 1 8 cbr 1000 ------- 2 1.0 5.0 49 49
+ 7.98 1 8 cbr 1000 ------- 2 1.0 5.0 49 49
- 7.98 1 8 cbr 1000 ------- 2 1.0 5.0 49 49
d 7.980004 7 8 cbr 1000 ------- 2 1.0 5.0 49 49
d 7.980004 6 8 cbr 1000 ------- 2 1.0 5.0 49 49
d 7.980004 4 8 cbr 1000 ------- 2 1.0 5.0 49 49
d 7.980004 3 8 cbr 1000 ------- 2 1.0 5.0 49 49
d 7.980004 2 8 cbr 1000 ------- 2 1.0 5.0 49 49
r 8.020004 8 5 cbr 1000 ------- 2 1.0 5.0 49 49
h 8.1 1 8 cbr 1000 ------- 2 1.0 5.0 50 50
+ 8.14 1 8 cbr 1000 ------- 2 1.0 5.0 50 50
- 8.14 1 8 cbr 1000 ------- 2 1.0 5.0 50 50
d 8.140004 7 8 cbr 1000 ------- 2 1.0 5.0 50 50
d 8.140004 6 8 cbr 1000 ------- 2 1.0 5.0 50 50
d 8.140004 4 8 cbr 1000 ------- 2 1.0 5.0 50 50
d 8.140004 3 8 cbr 1000 ------- 2 1.0 5.0 50 50
d 8.140004 2 8 cbr 1000 ------- 2 1.0 5.0 50 50
r 8.180004 8 5 cbr 1000 ------- 2 1.0 5.0 50 50
h 8.26 1 8 cbr 1000 ------- 2 1.0 5.0 51 51
+ 8.3 1 8 cbr 1000 ------- 2 1.0 5.0 51 51
- 8.3 1 8 cbr 1000 ------- 2 1.0 5.0 51 51
d 8.300004 7 8 cbr 1000 ------- 2 1.0 5.0 51 51
d 8.300004 6 8 cbr 1000 ------- 2 1.0 5.0 51 51
d 8.300004 4 8 cbr 1000 ------- 2 1.0 5.0 51 51
d 8.300004 3 8 cbr 1000 ------- 2 1.0 5.0 51 51
d 8.300004 2 8 cbr 1000 ------- 2 1.0 5.0 51 51
r 8.340004 8 5 cbr 1000 ------- 2 1.0 5.0 51 51
h 8.42 1 8 cbr 1000 ------- 2 1.0 5.0 52 52
+ 8.46 1 8 cbr 1000 ------- 2 1.0 5.0 52 52
- 8.46 1 8 cbr 1000 ------- 2 1.0 5.0 52 52
d 8.460004 7 8 cbr 1000 ------- 2 1.0 5.0 52 52
d 8.460004 6 8 cbr 1000 ------- 2 1.0 5.0 52 52
d 8.460004 4 8 cbr 1000 ------- 2 1.0 5.0 52 52
d 8.460004 3 8 cbr 1000 ------- 2 1.0 5.0 52 52
d 8.460004 2 8 cbr 1000 ------- 2 1.0 5.0 52 52
r 8.500004 8 5 cbr 1000 ------- 2 1.0 5.0 52 52
h 8.58 1 8 cbr 1000 ------- 2 1.0 5.0 53 53
+ 8.62 1 8 cbr 1000 ------- 2 1.0 5.0 53 53
- 8.62 1 8 cbr 1000 ------- 2 1.0 5.0 53 53
d 8.620004 7 8 cbr 1000 ------- 2 1.0 5.0 53 53
d 8.620004 6 8 cbr 1000 ------- 2 1.0 5.0 53 53
d 8.620004 4 8 cbr 1000 ------- 2 1.0 5.0 53 53
d 8.620004 3 8 cbr 1000 ------- 2 1.0 5.0 53 53
d 8.620004 2 8 cbr 1000 ------- 2 1.0 5.0 53 53
r 8.660004 8 5 cbr 1000 ------- 2 1.0 5.0 53 53
h 8.74 1 8 cbr 1000 ------- 2 1.0 5.0 54 54
+ 8.78 1 8 cbr 1000 ------- 2 1.0 5.0 54 54
- 8.78 1 8 cbr 1000 ------- 2 1.0 5.0 54 54
d 8.780004 7 8 cbr 1000 ------- 2 1.0 5.0 54 54
d 8.780004 6 8 cbr 1000 ------- 2 1.0 5.0 54 54
d 8.780004 4 8 cbr 1000 ------- 2 1.0 5.0 54 54
d 8.780004 3 8 cbr 1000 ------- 2 1.0 5.0 54 54
d 8.780004 2 8 cbr 1000 ------- 2 1.0 5.0 54 54
r 8.820004 8 5 cbr 1000 ------- 2 1.0 5.0 54 54
h 8.9 1 8 cbr 1000 ------- 2 1.0 5.0 55 55
+ 8.94 1 8 cbr 1000 ------- 2 1.0 5.0 55 55
- 8.94 1 8 cbr 1000 ------- 2 1.0 5.0 55 55
d 8.940004 7 8 cbr 1000 ------- 2 1.0 5.0 55 55
d 8.940004 6 8 cbr 1000 ------- 2 1.0 5.0 55 55
d 8.940004 4 8 cbr 1000 ------- 2 1.0 5.0 55 55
d 8.940004 3 8 cbr 1000 ------- 2 1.0 5.0 55 55
d 8.940004 2 8 cbr 1000 ------- 2 1.0 5.0 55 55
r 8.980004 8 5 cbr 1000 ------- 2 1.0 5.0 55 55
h 9.06 1 8 cbr 1000 ------- 2 1.0 5.0 56 56
+ 9.1 1 8 cbr 1000 ------- 2 1.0 5.0 56 56
- 9.1 1 8 cbr 1000 ------- 2 1.0 5.0 56 56
d 9.100004 7 8 cbr 1000 ------- 2 1.0 5.0 56 56
d 9.100004 6 8 cbr 1000 ------- 2 1.0 5.0 56 56
d 9.100004 4 8 cbr 1000 ------- 2 1.0 5.0 56 56
d 9.100004 3 8 cbr 1000 ------- 2 1.0 5.0 56 56
d 9.100004 2 8 cbr 1000 ------- 2 1.0 5.0 56 56
r 9.140004 8 5 cbr 1000 ------- 2 1.0 5.0 56 56
h 9.22 1 8 cbr 1000 ------- 2 1.0 5.0 57 57
+ 9.26 1 8 cbr 1000 ------- 2 1.0 5.0 57 57
- 9.26 1 8 cbr 1000 ------- 2 1.0 5.0 57 57
d 9.260004 7 8 cbr 1000 ------- 2 1.0 5.0 57 57
d 9.260004 6 8 cbr 1000 ------- 2 1.0 5.0 57 57
d 9.260004 4 8 cbr 1000 ------- 2 1.0 5.0 57 57
d 9.260004 3 8 cbr 1000 ------- 2 1.0 5.0 57 57
d 9.260004 2 8 cbr 1000 ------- 2 1.0 5.0 57 57
r 9.300004 8 5 cbr 1000 ------- 2 1.0 5.0 57 57
h 9.38 1 8 cbr 1000 ------- 2 1.0 5.0 58 58
+ 9.42 1 8 cbr 1000 ------- 2 1.0 5.0 58 58
- 9.42 1 8 cbr 1000 ------- 2 1.0 5.0 58 58
d 9.420004 7 8 cbr 1000 ------- 2 1.0 5.0 58 58
d 9.420004 6 8 cbr 1000 ------- 2 1.0 5.0 58 58
d 9.420004 4 8 cbr 1000 ------- 2 1.0 5.0 58 58
d 9.420004 3 8 cbr 1000 ------- 2 1.0 5.0 58 58
d 9.420004 2 8 cbr 1000 ------- 2 1.0 5.0 58 58
r 9.460004 8 5 cbr 1000 ------- 2 1.0 5.0 58 58
h 9.54 1 8 cbr 1000 ------- 2 1.0 5.0 59 59
+ 9.58 1 8 cbr 1000 ------- 2 1.0 5.0 59 59
- 9.58 1 8 cbr 1000 ------- 2 1.0 5.0 59 59
d 9.580004 7 8 cbr 1000 ------- 2 1.0 5.0 59 59
d 9.580004 6 8 cbr 1000 ------- 2 1.0 5.0 59 59
d 9.580004 4 8 cbr 1000 ------- 2 1.0 5.0 59 59
d 9.580004 3 8 cbr 1000 ------- 2 1.0 5.0 59 59
d 9.580004 2 8 cbr 1000 ------- 2 1.0 5.0 59 59
r 9.620004 8 5 cbr 1000 ------- 2 1.0 5.0 59 59
h 9.7 1 8 cbr 1000 ------- 2 1.0 5.0 60 60
+ 9.74 1 8 cbr 1000 ------- 2 1.0 5.0 60 60
- 9.74 1 8 cbr 1000 ------- 2 1.0 5.0 60 60
d 9.740004 7 8 cbr 1000 ------- 2 1.0 5.0 60 60
d 9.740004 6 8 cbr 1000 ------- 2 1.0 5.0 60 60
d 9.740004 4 8 cbr 1000 ------- 2 1.0 5.0 60 60
d 9.740004 3 8 cbr 1000 ------- 2 1.0 5.0 60 60
d 9.740004 2 8 cbr 1000 ------- 2 1.0 5.0 60 60
r 9.780004 8 5 cbr 1000 ------- 2 1.0 5.0 60 60
h 9.86 1 8 cbr 1000 ------- 2 1.0 5.0 61 61
+ 9.9 1 8 cbr 1000 ------- 2 1.0 5.0 61 61
- 9.9 1 8 cbr 1000 ------- 2 1.0 5.0 61 61
d 9.900004 7 8 cbr 1000 ------- 2 1.0 5.0 61 61
d 9.900004 6 8 cbr 1000 ------- 2 1.0 5.0 61 61
d 9.900004 4 8 cbr 1000 ------- 2 1.0 5.0 61 61
d 9.900004 3 8 cbr 1000 ------- 2 1.0 5.0 61 61
d 9.900004 2 8 cbr 1000 ------- 2 1.0 5.0 61 61
r 9.940004 8 5 cbr 1000 ------- 2 1.0 5.0 61 61
h 10.02 1 8 cbr 1000 ------- 2 1.0 5.0 62 62
+ 10.06 1 8 cbr 1000 ------- 2 1.0 5.0 62 62
- 10.06 1 8 cbr 1000 ------- 2 1.0 5.0 62 62
d 10.060004 7 8 cbr 1000 ------- 2 1.0 5.0 62 62
d 10.060004 6 8 cbr 1000 ------- 2 1.0 5.0 62 62
d 10.060004 4 8 cbr 1000 ------- 2 1.0 5.0 62 62
d 10.060004 3 8 cbr 1000 ------- 2 1.0 5.0 62 62
d 10.060004 2 8 cbr 1000 ------- 2 1.0 5.0 62 62
r 10.100004 8 5 cbr 1000 ------- 2 1.0 5.0 62 62
h 10.18 1 8 cbr 1000 ------- 2 1.0 5.0 63 63
+ 10.22 1 8 cbr 1000 ------- 2 1.0 5.0 63 63
- 10.22 1 8 cbr 1000 ------- 2 1.0 5.0 63 63
d 10.220004 7 8 cbr 1000 ------- 2 1.0 5.0 63 63
d 10.220004 6 8 cbr 1000 ------- 2 1.0 5.0 63 63
d 10.220004 4 8 cbr 1000 ------- 2 1.0 5.0 63 63
d 10.220004 3 8 cbr 1000 ------- 2 1.0 5.0 63 63
d 10.220004 2 8 cbr 1000 ------- 2 1.0 5.0 63 63
r 10.260004 8 5 cbr 1000 ------- 2 1.0 5.0 63 63
h 10.34 1 8 cbr 1000 ------- 2 1.0 5.0 64 64
+ 10.38 1 8 cbr 1000 ------- 2 1.0 5.0 64 64
- 10.38 1 8 cbr 1000 ------- 2 1.0 5.0 64 64
d 10.380004 7 8 cbr 1000 ------- 2 1.0 5.0 64 64
d 10.380004 6 8 cbr 1000 ------- 2 1.0 5.0 64 64
d 10.380004 4 8 cbr 1000 ------- 2 1.0 5.0 64 64
d 10.380004 3 8 cbr 1000 ------- 2 1.0 5.0 64 64
d 10.380004 2 8 cbr 1000 ------- 2 1.0 5.0 64 64
r 10.420004 8 5 cbr 1000 ------- 2 1.0 5.0 64 64
h 10.5 1 8 cbr 1000 ------- 2 1.0 5.0 65 65
+ 10.54 1 8 cbr 1000 ------- 2 1.0 5.0 65 65
- 10.54 1 8 cbr 1000 ------- 2 1.0 5.0 65 65
d 10.540004 7 8 cbr 1000 ------- 2 1.0 5.0 65 65
d 10.540004 6 8 cbr 1000 ------- 2 1.0 5.0 65 65
d 10.540004 4 8 cbr 1000 ------- 2 1.0 5.0 65 65
d 10.540004 3 8 cbr 1000 ------- 2 1.0 5.0 65 65
d 10.540004 2 8 cbr 1000 ------- 2 1.0 5.0 65 65
r 10.580004 8 5 cbr 1000 ------- 2 1.0 5.0 65 65
h 10.66 1 8 cbr 1000 ------- 2 1.0 5.0 66 66
+ 10.7 1 8 cbr 1000 ------- 2 1.0 5.0 66 66
- 10.7 1 8 cbr 1000 ------- 2 1.0 5.0 66 66
d 10.700004 7 8 cbr 1000 ------- 2 1.0 5.0 66 66
d 10.700004 6 8 cbr 1000 ------- 2 1.0 5.0 66 66
d 10.700004 4 8 cbr 1000 ------- 2 1.0 5.0 66 66
d 10.700004 3 8 cbr 1000 ------- 2 1.0 5.0 66 66
d 10.700004 2 8 cbr 1000 ------- 2 1.0 5.0 66 66
r 10.740004 8 5 cbr 1000 ------- 2 1.0 5.0 66 66
h 10.82 1 8 cbr 1000 ------- 2 1.0 5.0 67 67
+ 10.86 1 8 cbr 1000 ------- 2 1.0 5.0 67 67
- 10.86 1 8 cbr 1000 ------- 2 1.0 5.0 67 67
d 10.860004 7 8 cbr 1000 ------- 2 1.0 5.0 67 67
d 10.860004 6 8 cbr 1000 ------- 2 1.0 5.0 67 67
d 10.860004 4 8 cbr 1000 ------- 2 1.0 5.0 67 67
d 10.860004 3 8 cbr 1000 ------- 2 1.0 5.0 67 67
d 10.860004 2 8 cbr 1000 ------- 2 1.0 5.0 67 67
r 10.900004 8 5 cbr 1000 ------- 2 1.0 5.0 67 67
h 10.98 1 8 cbr 1000 ------- 2 1.0 5.0 68 68
+ 11.02 1 8 cbr 1000 ------- 2 1.0 5.0 68 68
- 11.02 1 8 cbr 1000 ------- 2 1.0 5.0 68 68
d 11.020004 7 8 cbr 1000 ------- 2 1.0 5.0 68 68
d 11.020004 6 8 cbr 1000 ------- 2 1.0 5.0 68 68
d 11.020004 4 8 cbr 1000 ------- 2 1.0 5.0 68 68
d 11.020004 3 8 cbr 1000 ------- 2 1.0 5.0 68 68
d 11.020004 2 8 cbr 1000 ------- 2 1.0 5.0 68 68
r 11.060004 8 5 cbr 1000 ------- 2 1.0 5.0 68 68
h 11.14 1 8 cbr 1000 ------- 2 1.0 5.0 69 69
+ 11.18 1 8 cbr 1000 ------- 2 1.0 5.0 69 69
- 11.18 1 8 cbr 1000 ------- 2 1.0 5.0 69 69
d 11.180004 7 8 cbr 1000 ------- 2 1.0 5.0 69 69
d 11.180004 6 8 cbr 1000 ------- 2 1.0 5.0 69 69
d 11.180004 4 8 cbr 1000 ------- 2 1.0 5.0 69 69
d 11.180004 3 8 cbr 1000 ------- 2 1.0 5.0 69 69
d 11.180004 2 8 cbr 1000 ------- 2 1.0 5.0 69 69
r 11.220004 8 5 cbr 1000 ------- 2 1.0 5.0 69 69
h 11.3 1 8 cbr 1000 ------- 2 1.0 5.0 70 70
+ 11.34 1 8 cbr 1000 ------- 2 1.0 5.0 70 70
- 11.34 1 8 cbr 1000 ------- 2 1.0 5.0 70 70
d 11.340004 7 8 cbr 1000 ------- 2 1.0 5.0 70 70
d 11.340004 6 8 cbr 1000 ------- 2 1.0 5.0 70 70
d 11.340004 4 8 cbr 1000 ------- 2 1.0 5.0 70 70
d 11.340004 3 8 cbr 1000 ------- 2 1.0 5.0 70 70
d 11.340004 2 8 cbr 1000 ------- 2 1.0 5.0 70 70
r 11.380004 8 5 cbr 1000 ------- 2 1.0 5.0 70 70
h 11.46 1 8 cbr 1000 ------- 2 1.0 5.0 71 71
+ 11.5 1 8 cbr 1000 ------- 2 1.0 5.0 71 71
- 11.5 1 8 cbr 1000 ------- 2 1.0 5.0 71 71
d 11.500004 7 8 cbr 1000 ------- 2 1.0 5.0 71 71
d 11.500004 6 8 cbr 1000 ------- 2 1.0 5.0 71 71
d 11.500004 4 8 cbr 1000 ------- 2 1.0 5.0 71 71